LAMMPS data file via write_data, version 29 Aug 2024, timestep = 0, units = real

1500 atoms
2 atom types
1000 bonds
1 bond types
500 angles
1 angle types

0 115 xlo xhi
0 115 ylo yhi
0 115 zlo zhi

Masses

1 12.0107
2 15.9994

PairIJ Coeffs # lj/cut/coul/long/gpu

1 1 0.053649 2.8 12
1 2 0.0917684 2.925 12
2 2 0.156973 3.05 12

Bond Coeffs # harmonic

1 0 1.16

Angle Coeffs # harmonic

1 0 180

Atoms # full

1 1 1 0.7 8.472817211166404 32.63886807376466 11.4557157626635 0 0 0
2 1 2 -0.35 7.4651564669241885 32.87655409939822 10.932528245866942 0 0 0
3 1 2 -0.35 9.48047795540862 32.401182048131105 11.978903279460058 0 0 0
4 2 1 0.7 26.214823085449087 27.531597142820992 78.55317939238306 0 0 0
5 2 2 -0.35 26.56214294157867 28.032164233633203 77.5660616156543 0 0 0
6 2 2 -0.35 25.867503229319503 27.03103005200878 79.54029716911181 0 0 0
7 3 1 0.7 43.28604778195082 18.605071247371413 10.432454571329268 0 0 0
8 3 2 -0.35 42.823438926997845 17.541308032534904 10.431521790653235 0 0 0
9 3 2 -0.35 43.748656636903796 19.668834462207922 10.433387352005301 0 0 0
10 4 1 0.7 78.26398033102228 12.717423491514019 71.73662187612459 0 0 0
11 4 2 -0.35 77.17892101326328 12.91646742966518 72.09526903926636 0 0 0
12 4 2 -0.35 79.34903964878129 12.518379553362857 71.37797471298282 0 0 0
13 5 1 0.7 17.403872025852966 61.87713851075486 24.066950256967427 0 0 0
14 5 2 -0.35 17.231213250808544 62.16211696027509 25.1780651163358 0 0 0
15 5 2 -0.35 17.576530800897388 61.59216006123463 22.955835397599053 0 0 0
16 6 1 0.7 38.23296885156677 76.5074882826337 46.35556622471454 0 0 0
17 6 2 -0.35 37.14549466717735 76.68104792782395 45.991043320292874 0 0 0
18 6 2 -0.35 39.32044303595618 76.33392863744345 46.72008912913621 0 0 0
19 7 1 0.7 88.00153877725896 26.86222939140267 98.4893813047043 0 0 0
20 7 2 -0.35 86.98016617769379 27.124905507649995 98.00626716621244 0 0 0
21 7 2 -0.35 89.02291137682413 26.599553275155348 98.97249544319615 0 0 0
22 8 1 0.7 1.0315881651041974 87.90229090624597 83.80326127577725 0 0 0
23 8 2 -0.35 0.5566947653744939 88.91972318806936 84.09465072444831 0 0 0
24 8 2 -0.35 1.506481564833901 86.88485862442258 83.51187182710618 0 0 0
25 9 1 0.7 76.41226198822831 55.88723615318874 91.77802664310579 0 0 0
26 9 2 -0.35 76.07150498517953 56.59925472834246 90.9280182822591 0 0 0
27 9 2 -0.35 76.75301899127709 55.17521757803502 92.62803500395248 0 0 0
28 10 1 0.7 18.293790679096148 68.73994356893932 22.231563163097746 0 0 0
29 10 2 -0.35 18.300369989070493 67.78040159472206 22.88335754202066 0 0 0
30 10 2 -0.35 18.287211369121803 69.69948554315658 21.57976878417483 0 0 0
31 11 1 0.7 10.882082183790432 45.15526296578127 39.5046658858213 0 0 0
32 11 2 -0.35 10.487671212237887 45.126084886933604 40.59516514085714 0 0 0
33 11 2 -0.35 11.276493155342978 45.18444104462893 38.41416663078545 0 0 0
34 12 1 0.7 59.91954299850368 12.759175851363306 83.46853386306601 0 0 0
35 12 2 -0.35 59.00020421987691 13.442584142644893 83.65120656907496 0 0 0
36 12 2 -0.35 60.838881777130446 12.075767560081719 83.28586115705707 0 0 0
37 13 1 0.7 85.64863655047894 41.63450389943761 91.1070378479115 0 0 0
38 13 2 -0.35 85.73360672730108 40.48366134142914 90.9889638214394 0 0 0
39 13 2 -0.35 85.5636663736568 42.78534645744608 91.2251118743836 0 0 0
40 14 1 0.7 10.985109848429035 51.741222546781046 99.72734374912797 0 0 0
41 14 2 -0.35 10.284090442919977 51.40039060103654 100.58641614296899 0 0 0
42 14 2 -0.35 11.686129253938093 52.08205449252555 98.86827135528695 0 0 0
43 15 1 0.7 107.4663915939007 112.64351868892253 69.6186047208582 0 0 0
44 15 2 -0.35 106.6797545166869 112.64963365708273 68.76609975552549 0 0 0
45 15 2 -0.35 108.25302867111449 112.63740372076232 70.47110968619091 0 0 0
46 16 1 0.7 69.88954346389023 23.55699760306487 92.4587147112278 0 0 0
47 16 2 -0.35 68.74001616026933 23.40682227966932 92.41828761050195 0 0 0
48 16 2 -0.35 71.03907076751113 23.707172926460416 92.49914181195365 0 0 0
49 17 1 0.7 73.6181516054171 15.274032245052062 30.659942590007535 0 0 0
50 17 2 -0.35 72.6464251354398 15.845721014896004 30.93292540627952 0 0 0
51 17 2 -0.35 74.5898780753944 14.70234347520812 30.38695977373555 0 0 0
52 18 1 0.7 101.6551102565858 77.43808243770063 46.85153043449462 0 0 0
53 18 2 -0.35 100.83947171969733 78.05986789114557 46.30957413826151 0 0 0
54 18 2 -0.35 102.47074879347427 76.81629698425569 47.39348673072773 0 0 0
55 19 1 0.7 28.672012551069265 40.514945821145055 19.69441598499865 0 0 0
56 19 2 -0.35 28.49227191256128 40.826564422899665 18.59160723008724 0 0 0
57 19 2 -0.35 28.851753189577252 40.203327219390445 20.797224739910057 0 0 0
58 20 1 0.7 34.0494598723247 29.2720741612241 5.750427693478031 0 0 0
59 20 2 -0.35 34.969918998755574 29.20738228479456 6.453399924575482 0 0 0
60 20 2 -0.35 33.12900074589382 29.336766037653643 5.047455462380579 0 0 0
61 21 1 0.7 47.43824428526603 114.57170246614689 46.60334853064425 0 0 0
62 21 2 -0.35 48.247880956395086 113.84323198111312 47.00262188712791 0 0 0
63 21 2 -0.35 46.628607614136975 0.3001729511806559 46.204075174160586 0 1 0
64 22 1 0.7 112.47875453786867 60.42751795865014 40.29433103291985 0 0 0
65 22 2 -0.35 111.55344952533886 59.74314455671668 40.1492666316588 0 0 0
66 22 2 -0.35 113.40405955039847 61.111891360583606 40.4393954341809 0 0 0
67 23 1 0.7 106.82167028394605 86.8124622813484 52.05356262254229 0 0 0
68 23 2 -0.35 107.58430902919251 87.41217382173357 51.417694544575056 0 0 0
69 23 2 -0.35 106.05903153869959 86.21275074096323 52.68943070050952 0 0 0
70 24 1 0.7 59.22699706825753 103.13972620439704 74.3783173008721 0 0 0
71 24 2 -0.35 58.4075593530976 103.87960301872035 74.73427253766495 0 0 0
72 24 2 -0.35 60.04643478341747 102.39984939007373 74.02236206407925 0 0 0
73 25 1 0.7 26.37887575727835 24.764852577245257 37.87726576108358 0 0 0
74 25 2 -0.35 25.33505509035016 24.281486318613133 37.727614582305826 0 0 0
75 25 2 -0.35 27.422696424206542 25.24821883587738 38.02691693986133 0 0 0
76 26 1 0.7 78.20564653175215 67.30125915831945 107.26267387497364 0 0 0
77 26 2 -0.35 77.12458038833476 67.59816748334143 106.96477885975973 0 0 0
78 26 2 -0.35 79.28671267516954 67.00435083329748 107.56056889018755 0 0 0
79 27 1 0.7 23.759816681854343 51.23897192591753 53.401158895996005 0 0 0
80 27 2 -0.35 22.913132060790257 51.16473535344451 52.61171980159985 0 0 0
81 27 2 -0.35 24.606501302918428 51.31320849839055 54.19059799039216 0 0 0
82 28 1 0.7 53.27756500489897 46.03503733688734 105.87252106558184 0 0 0
83 28 2 -0.35 52.447268275595185 46.58958964930367 106.46301160242484 0 0 0
84 28 2 -0.35 54.10786173420275 45.480485024471015 105.28203052873883 0 0 0
85 29 1 0.7 4.461549233860127 5.257973487143392 50.76039841899667 0 0 0
86 29 2 -0.35 3.302176559018582 5.28276731132008 50.78938578026769 0 0 0
87 29 2 -0.35 5.620921908701671 5.2331796629667044 50.73141105772565 0 0 0
88 30 1 0.7 60.01622807700942 27.74529029743061 105.09402891625372 0 0 0
89 30 2 -0.35 59.09640258767311 27.794324609459082 104.38896387995486 0 0 0
90 30 2 -0.35 60.936053566345734 27.69625598540214 105.79909395255258 0 0 0
91 31 1 0.7 30.343995476301757 81.5319702036362 82.8232125136178 0 0 0
92 31 2 -0.35 30.656175617935713 80.54642819125826 82.29704666428184 0 0 0
93 31 2 -0.35 30.0318153346678 82.51751221601415 83.34937836295377 0 0 0
94 32 1 0.7 49.73271637444045 37.76410522068111 16.31644398733808 0 0 0
95 32 2 -0.35 48.941345099976346 36.91665047250481 16.282503513762734 0 0 0
96 32 2 -0.35 50.524087648904555 38.61155996885741 16.350384460913425 0 0 0
97 33 1 0.7 70.474095191096 73.11787675047194 2.1545451819685035 0 0 0
98 33 2 -0.35 69.33296367900432 72.95451098884621 2.283891616166772 0 0 0
99 33 2 -0.35 71.61522670318767 73.28124251209766 2.025198747770235 0 0 0
100 34 1 0.7 101.44087334463414 41.75830326590608 101.80299008349095 0 0 0
101 34 2 -0.35 100.44225572135615 41.70589564705225 101.21509869559291 0 0 0
102 34 2 -0.35 102.43949096791214 41.81071088475991 102.390881471389 0 0 0
103 35 1 0.7 32.85433323255476 67.77863954788943 80.59488137745991 0 0 0
104 35 2 -0.35 31.7081216718289 67.95684163855373 80.58831837957294 0 0 0
105 35 2 -0.35 34.00054479328062 67.60043745722513 80.60144437534689 0 0 0
106 36 1 0.7 88.17131096877684 5.223452232416464 45.56167022351253 0 0 0
107 36 2 -0.35 87.19067817152035 4.668604038515222 45.837537580532974 0 0 0
108 36 2 -0.35 89.15194376603333 5.778300426317705 45.285802866492084 0 0 0
109 37 1 0.7 84.99144657514591 36.24258847732217 89.18453835378612 0 0 0
110 37 2 -0.35 83.83223991184197 36.240009473047785 89.14172176250808 0 0 0
111 37 2 -0.35 86.15065323844986 36.24516748159656 89.22735494506416 0 0 0
112 38 1 0.7 14.53611208337178 48.435785229520775 90.24235255561878 0 0 0
113 38 2 -0.35 14.579100192349484 49.045067414226764 89.256184597365 0 0 0
114 38 2 -0.35 14.493123974394075 47.826503044814785 91.22852051387255 0 0 0
115 39 1 0.7 83.21940228492925 38.49420280591315 97.06655898227662 0 0 0
116 39 2 -0.35 82.43081542052583 37.77963181401927 96.6049107884816 0 0 0
117 39 2 -0.35 84.00798914933266 39.20877379780703 97.52820717607163 0 0 0
118 40 1 0.7 7.65681512311884 3.091774258339673 98.4499599148752 0 0 0
119 40 2 -0.35 7.405136863627476 3.1323551492515227 99.581600867206 0 0 0
120 40 2 -0.35 7.908493382610205 3.051193367427823 97.31831896254438 0 0 0
121 41 1 0.7 28.476289307454735 85.99439039174206 102.71931400882048 0 0 0
122 41 2 -0.35 27.95525687671467 86.74711166574512 102.0068984771395 0 0 0
123 41 2 -0.35 28.9973217381948 85.241669117739 103.43172954050145 0 0 0
124 42 1 0.7 23.510546245849945 1.7507540000373283 99.9224786273774 0 0 0
125 42 2 -0.35 22.367925915708234 1.5842735169619155 100.03339765145272 0 0 0
126 42 2 -0.35 24.653166575991655 1.917234483112741 99.81155960330209 0 0 0
127 43 1 0.7 52.09829033217313 5.965612833837798 99.05489831187525 0 0 0
128 43 2 -0.35 53.203349904180634 6.023379141005791 98.70689486926187 0 0 0
129 43 2 -0.35 50.99323076016562 5.907846526669805 99.40290175448862 0 0 0
130 44 1 0.7 75.67592768728544 100.31664020629442 6.771947190524986 0 0 0
131 44 2 -0.35 75.05514883163103 101.19896201301003 6.345635283857448 0 0 0
132 44 2 -0.35 76.29670654293984 99.43431839957881 7.1982590971925235 0 0 0
133 45 1 0.7 81.1164311534336 113.85839575848468 18.05751285192441 0 0 0
134 45 2 -0.35 79.99446656403276 113.62640244109231 18.23910184062117 0 0 0
135 45 2 -0.35 82.23839574283443 114.09038907587704 17.87592386322765 0 0 0
136 46 1 0.7 7.618502293535743 49.16804745521772 92.37357984407505 0 0 0
137 46 2 -0.35 7.310753421087497 48.825318310887916 93.43820530175198 0 0 0
138 46 2 -0.35 7.926251165983988 49.51077659954752 91.30895438639813 0 0 0
139 47 1 0.7 22.756439369524102 92.47648359158845 27.25972382689813 0 0 0
140 47 2 -0.35 22.032829431769528 92.62474335165228 28.154155323173075 0 0 0
141 47 2 -0.35 23.480049307278676 92.32822383152461 26.365292330623188 0 0 0
142 48 1 0.7 109.17835867692641 20.67428310200306 57.67609536539582 0 0 0
143 48 2 -0.35 108.16831032962862 20.10930556745447 57.75485272426737 0 0 0
144 48 2 -0.35 110.18840702422419 21.23926063655165 57.59733800652426 0 0 0
145 49 1 0.7 27.13480620744396 79.68792851068449 25.014479074168243 0 0 0
146 49 2 -0.35 27.314977978659854 78.79719409414065 24.293555824410518 0 0 0
147 49 2 -0.35 26.95463443622807 80.57866292722832 25.735402323925967 0 0 0
148 50 1 0.7 93.34979954564469 100.08096365029037 70.75607043027695 0 0 0
149 50 2 -0.35 92.68000743025365 99.28834363503921 71.27446413546949 0 0 0
150 50 2 -0.35 94.01959166103572 100.87358366554153 70.23767672508441 0 0 0
151 51 1 0.7 97.27572166466885 73.0540180895729 78.8820314518558 0 0 0
152 51 2 -0.35 96.45181189800776 73.60895671562544 79.4810438204388 0 0 0
153 51 2 -0.35 98.09963143132994 72.49907946352037 78.28301908327279 0 0 0
154 52 1 0.7 50.30261134044389 70.98879884043187 98.74211113841372 0 0 0
155 52 2 -0.35 50.25146488113974 69.82995869032798 98.75068704698752 0 0 0
156 52 2 -0.35 50.35375779974804 72.14763899053575 98.73353522983992 0 0 0
157 53 1 0.7 108.66190331925728 80.6090867568781 96.92112285034783 0 0 0
158 53 2 -0.35 107.62223195783746 80.53124206440192 96.41257229819323 0 0 0
159 53 2 -0.35 109.7015746806771 80.68693144935428 97.42967340250243 0 0 0
160 54 1 0.7 93.31174579603213 35.51159391203504 108.358879572879 0 0 0
161 54 2 -0.35 92.59153552083734 36.3810623076096 108.62519117345407 0 0 0
162 54 2 -0.35 94.03195607122692 34.64212551646048 108.09256797230394 0 0 0
163 55 1 0.7 47.68898137737484 73.71000953889919 64.1303202785227 0 0 0
164 55 2 -0.35 46.86573761583119 73.54308775841396 64.93032454618577 0 0 0
165 55 2 -0.35 48.51222513891848 73.87693131938441 63.33031601085964 0 0 0
166 56 1 0.7 58.29292113114751 44.12545119604349 96.45825190304697 0 0 0
167 56 2 -0.35 57.15386514558238 44.07057281992233 96.24579055224982 0 0 0
168 56 2 -0.35 59.43197711671264 44.18032957216465 96.67071325384413 0 0 0
169 57 1 0.7 18.839734510443982 44.4179170319894 66.93155664574894 0 0 0
170 57 2 -0.35 17.731392435459195 44.48567252251486 66.59601672514027 0 0 0
171 57 2 -0.35 19.94807658542877 44.35016154146393 67.26709656635761 0 0 0
172 58 1 0.7 103.67254510227244 59.46553389284086 87.22813697635576 0 0 0
173 58 2 -0.35 104.04559289426285 58.45687923698346 87.66293707997612 0 0 0
174 58 2 -0.35 103.29949731028202 60.47418854869826 86.7933368727354 0 0 0
175 59 1 0.7 23.298161611099804 112.20219775438412 12.337657933746305 0 0 0
176 59 2 -0.35 23.04212455387894 111.14543331427122 11.93356148060355 0 0 0
177 59 2 -0.35 23.55419866832067 113.25896219449702 12.74175438688906 0 0 0
178 60 1 0.7 14.016892474152563 61.911813082132404 31.84247139927115 0 0 0
179 60 2 -0.35 12.997084746392575 61.646545387007386 31.35747114326702 0 0 0
180 60 2 -0.35 15.03670020191255 62.17708077725742 32.32747165527528 0 0 0
181 61 1 0.7 81.4168075501997 102.28449620645702 75.52774192324269 0 0 0
182 61 2 -0.35 80.34643214390003 102.5791850675473 75.86397839470008 0 0 0
183 61 2 -0.35 82.48718295649938 101.98980734536674 75.19150545178529 0 0 0
184 62 1 0.7 24.75850393984397 46.17571695762487 55.27490680118785 0 0 0
185 62 2 -0.35 25.322556735346726 46.98682807505388 55.882807450199344 0 0 0
186 62 2 -0.35 24.194451144341212 45.364605840195864 54.66700615217636 0 0 0
187 63 1 0.7 35.35860756428848 67.11733299638951 6.015670318629439 0 0 0
188 63 2 -0.35 34.294738767023354 67.5425224066323 5.834019148462392 0 0 0
189 63 2 -0.35 36.4224763615536 66.69214358614671 6.1973214887964865 0 0 0
190 64 1 0.7 20.37104520498358 21.156760159021598 1.6679926759880002 0 0 0
191 64 2 -0.35 20.411292534655644 22.063899572040096 0.946135184648662 0 0 0
192 64 2 -0.35 20.330797875311518 20.2496207460031 2.3898501673273382 0 0 0
193 65 1 0.7 88.95290533031938 31.479886677805283 82.45539387336717 0 0 0
194 65 2 -0.35 89.22291358260132 30.866080355129544 83.40193354075726 0 0 0
195 65 2 -0.35 88.68289707803744 32.093693000481025 81.50885420597709 0 0 0
196 66 1 0.7 77.80482968213262 0.7724676028697135 102.8630014312747 0 0 0
197 66 2 -0.35 77.06202227956139 0.9992951624011396 102.00138294207986 0 0 0
198 66 2 -0.35 78.54763708470385 0.5456400433382874 103.72461992046954 0 0 0
199 67 1 0.7 23.465055433784173 42.186675610573346 56.45698690621973 0 0 0
200 67 2 -0.35 23.068829932473584 41.19533077031392 56.003290135455174 0 0 0
201 67 2 -0.35 23.86128093509476 43.17802045083277 56.91068367698429 0 0 0
202 68 1 0.7 7.578932835058743 74.1241588323024 9.73749450628529 0 0 0
203 68 2 -0.35 6.924234876406928 74.78986186215391 9.049155883960733 0 0 0
204 68 2 -0.35 8.233630793710558 73.45845580245089 10.425833128609845 0 0 0
205 69 1 0.7 13.070167136876922 20.299069490422994 76.46092553923881 0 0 0
206 69 2 -0.35 11.967798367778816 20.35527964147975 76.81760959528184 0 0 0
207 69 2 -0.35 14.172535905975028 20.242859339366237 76.10424148319579 0 0 0
208 70 1 0.7 68.77553798666948 45.466941953854146 102.89341842657579 0 0 0
209 70 2 -0.35 67.66176761782435 45.54505825955385 102.57875446571211 0 0 0
210 70 2 -0.35 69.8893083555146 45.388825648154445 103.20808238743948 0 0 0
211 71 1 0.7 74.68349545946508 95.50818722951608 36.102766476619415 0 0 0
212 71 2 -0.35 75.72681663004754 95.06911123703644 36.35632753010056 0 0 0
213 71 2 -0.35 73.64017428888262 95.94726322199573 35.84920542313827 0 0 0
214 72 1 0.7 39.19617254249573 50.07192172579091 103.78844536784499 0 0 0
215 72 2 -0.35 38.038928073588 50.09020455191431 103.8662333968174 0 0 0
216 72 2 -0.35 40.35341701140346 50.053638899667504 103.71065733887256 0 0 0
217 73 1 0.7 52.4012973706244 38.60490808431288 2.690173046519129 0 0 0
218 73 2 -0.35 52.34941023009192 39.698882856862035 3.072438558530602 0 0 0
219 73 2 -0.35 52.45318451115688 37.51093331176373 2.307907534507656 0 0 0
220 74 1 0.7 18.738392847002665 66.16857957382155 45.316897218728855 0 0 0
221 74 2 -0.35 17.58904210180733 66.2641947868841 45.19259679415222 0 0 0
222 74 2 -0.35 19.887743592198 66.07296436075899 45.441197643305486 0 0 0
223 75 1 0.7 111.09155517587976 90.76784101117768 60.10387486317375 0 0 0
224 75 2 -0.35 110.55426530701482 90.0755171043728 59.34387012313489 0 0 0
225 75 2 -0.35 111.62884504474471 91.46016491798255 60.86387960321261 0 0 0
226 76 1 0.7 5.824825361289468 32.839847192093664 54.31175751812373 0 0 0
227 76 2 -0.35 6.782239593215203 33.168516561686594 54.8782682717705 0 0 0
228 76 2 -0.35 4.867411129363734 32.511177822500734 53.74524676447695 0 0 0
229 77 1 0.7 62.70860710540256 83.55962050080282 6.541756992946265 0 0 0
230 77 2 -0.35 61.88907658675995 84.16512772255648 5.987382811172309 0 0 0
231 77 2 -0.35 63.528137624045165 82.95411327904917 7.096131174720221 0 0 0
232 78 1 0.7 7.309780447888087 35.479987655058494 37.152518568165846 0 0 0
233 78 2 -0.35 7.445733036434259 34.972729239529485 36.118204402381295 0 0 0
234 78 2 -0.35 7.173827859341914 35.9872460705875 38.186832733950396 0 0 0
235 79 1 0.7 87.37957516330275 38.519769629239924 66.76815863548227 0 0 0
236 79 2 -0.35 86.46663807421456 37.89595255481983 66.41744774453485 0 0 0
237 79 2 -0.35 88.29251225239094 39.14358670366002 67.11886952642968 0 0 0
238 80 1 0.7 2.4421865504431475 105.82935329798113 83.94087916889268 0 0 0
239 80 2 -0.35 3.37729589937417 105.23623886703092 84.28640163898747 0 0 0
240 80 2 -0.35 1.507077201512125 106.42246772893134 83.59535669879789 0 0 0
241 81 1 0.7 89.35619157941835 24.511875284142736 41.087900586932854 0 0 0
242 81 2 -0.35 88.61218785209749 25.347662603864425 41.39370773191986 0 0 0
243 81 2 -0.35 90.10019530673921 23.676087964421047 40.78209344194585 0 0 0
244 82 1 0.7 104.34516458043139 94.18110331016645 41.803333967366875 0 0 0
245 82 2 -0.35 104.62056342823314 93.14140560983053 42.237826966787665 0 0 0
246 82 2 -0.35 104.06976573262963 95.22080101050237 41.368840967946085 0 0 0
247 83 1 0.7 53.63398953510168 56.46211645401181 93.7912425765727 0 0 0
248 83 2 -0.35 52.75071187338444 56.51074037178748 93.0408718102635 0 0 0
249 83 2 -0.35 54.51726719681893 56.41349253623615 94.5416133428819 0 0 0
250 84 1 0.7 44.41398445722367 0.8367725582033269 33.6363857233135 0 0 0
251 84 2 -0.35 45.56509086745585 0.693437278155922 33.633380758068995 0 0 0
252 84 2 -0.35 43.26287804699149 0.9801078382507317 33.63939068855801 0 0 0
253 85 1 0.7 101.73485172993264 37.653024977842826 104.39080260432829 0 0 0
254 85 2 -0.35 102.64082934485208 36.97292517260737 104.14126540032137 0 0 0
255 85 2 -0.35 100.8288741150132 38.33312478307828 104.6403398083352 0 0 0
256 86 1 0.7 56.219370945458934 38.967480328384546 1.4418791590453495 0 0 0
257 86 2 -0.35 55.58402028980758 39.282620588014886 2.359820421394701 0 0 0
258 86 2 -0.35 56.854721601110285 38.65234006875421 0.523937896695998 0 0 0
259 87 1 0.7 83.66302607518762 19.479245678279195 97.68211483847448 0 0 0
260 87 2 -0.35 83.34959064431446 18.970206849551115 98.67621629281427 0 0 0
261 87 2 -0.35 83.97646150606077 19.988284507007275 96.68801338413468 0 0 0
262 88 1 0.7 3.304090240646196 101.8446745406113 43.44500405408675 0 0 0
263 88 2 -0.35 3.3087409671447343 101.58581751008003 42.31426473466447 0 0 0
264 88 2 -0.35 3.2994395141476573 102.10353157114255 44.575743373509034 0 0 0
265 89 1 0.7 45.183137036013946 47.98416428639747 89.84916148234585 0 0 0
266 89 2 -0.35 44.40704237590854 48.476829106523844 89.1416599250573 0 0 0
267 89 2 -0.35 45.95923169611935 47.4914994662711 90.5566630396344 0 0 0
268 90 1 0.7 29.857033786762987 62.16685412552526 63.317287703192456 0 0 0
269 90 2 -0.35 30.61117166100361 61.39109942443181 63.73571417267932 0 0 0
270 90 2 -0.35 29.102895912522364 62.94260882661872 62.89886123370559 0 0 0
271 91 1 0.7 78.65442755569445 19.963928556518596 78.74724940804171 0 0 0
272 91 2 -0.35 77.6484095620782 19.765436173719117 78.2049131926818 0 0 0
273 91 2 -0.35 79.66044554931071 20.162420939318075 79.28958562340162 0 0 0
274 92 1 0.7 85.02080095700025 69.6016843033031 15.508085615238215 0 0 0
275 92 2 -0.35 84.1348212657982 69.30918689336092 16.197349898336235 0 0 0
276 92 2 -0.35 85.9067806482023 69.89418171324529 14.818821332140196 0 0 0
277 93 1 0.7 54.39493530867386 80.67773288147418 100.65653893661523 0 0 0
278 93 2 -0.35 53.235939286115 80.63054456558507 100.66661279070819 0 0 0
279 93 2 -0.35 55.55393133123272 80.7249211973633 100.64646508252228 0 0 0
280 94 1 0.7 84.44990769235879 19.598585474117932 33.4260635000775 0 0 0
281 94 2 -0.35 84.53936275063094 18.93628822638361 34.37419858971033 0 0 0
282 94 2 -0.35 84.36045263408664 20.260882721852255 32.47792841044466 0 0 0
283 95 1 0.7 16.849245802429152 55.27420142678274 23.503379937495747 0 0 0
284 95 2 -0.35 15.698354032612826 55.13550764195448 23.54594950666266 0 0 0
285 95 2 -0.35 18.000137572245478 55.412895211610994 23.460810368328836 0 0 0
286 96 1 0.7 111.3066094910291 25.185715726197564 96.32421020247239 0 0 0
287 96 2 -0.35 110.68842871079738 25.52084164519576 97.24678439535214 0 0 0
288 96 2 -0.35 111.92479027126083 24.85058980719937 95.40163600959264 0 0 0
289 97 1 0.7 66.00087295332965 101.67172661129 11.709155951025503 0 0 0
290 97 2 -0.35 65.99287530483913 102.13319429768238 10.644926834700321 0 0 0
291 97 2 -0.35 66.00887060182016 101.21025892489762 12.773385067350684 0 0 0
292 98 1 0.7 30.784068885624443 2.845760689976514 103.69991643526588 0 0 0
293 98 2 -0.35 30.492618477565458 2.2620037496991108 104.65902252654057 0 0 0
294 98 2 -0.35 31.075519293683428 3.429517630253917 102.74081034399119 0 0 0
295 99 1 0.7 59.495527513555956 16.33092033505948 83.77807134472675 0 0 0
296 99 2 -0.35 58.39822589597774 16.055268534347043 83.52205328906618 0 0 0
297 99 2 -0.35 60.592829131134174 16.60657213577192 84.03408940038733 0 0 0
298 100 1 0.7 113.04509082252396 33.8414541603259 98.32007259750742 0 0 0
299 100 2 -0.35 112.77750030284277 34.958327681224695 98.15701171289103 0 0 0
300 100 2 -0.35 113.31268134220515 32.72458063942711 98.4831334821238 0 0 0
301 101 1 0.7 30.460146307228204 78.67898558437777 87.71071663718239 0 0 0
302 101 2 -0.35 29.589010204135786 78.58361761153394 86.95069897972658 0 0 0
303 101 2 -0.35 31.331282410320622 78.7743535572216 88.47073429463819 0 0 0
304 102 1 0.7 84.01452112431383 62.05653634250934 49.20630855448838 0 0 0
305 102 2 -0.35 85.1098415551407 62.43838536848561 49.19827891102113 0 0 0
306 102 2 -0.35 82.91920069348696 61.67468731653307 49.214338197955634 0 0 0
307 103 1 0.7 45.42787528616743 21.29993461598639 108.00109088327785 0 0 0
308 103 2 -0.35 44.40177210680418 20.760256096093013 107.96288930652598 0 0 0
309 103 2 -0.35 46.453978465530675 21.83961313587977 108.03929246002973 0 0 0
310 104 1 0.7 14.334475251070446 109.52554474097003 105.8304614833698 0 0 0
311 104 2 -0.35 13.174880393016853 109.5473848564062 105.80894928837716 0 0 0
312 104 2 -0.35 15.494070109124038 109.50370462553387 105.85197367836244 0 0 0
313 105 1 0.7 102.56615099616636 94.29979256787328 81.61368824616711 0 0 0
314 105 2 -0.35 101.68620779673512 94.94585131937602 81.22137707454256 0 0 0
315 105 2 -0.35 103.4460941955976 93.65373381637055 82.00599941779167 0 0 0
316 106 1 0.7 76.25835333078092 114.1444304348642 110.44231876285855 0 0 0
317 106 2 -0.35 75.12832425731509 114.0658566166775 110.19239787894227 0 0 0
318 106 2 -0.35 77.38838240424676 114.22300425305092 110.69223964677482 0 0 0
319 107 1 0.7 104.05144736359429 102.67583992922485 97.84169048203235 0 0 0
320 107 2 -0.35 104.75043987677141 101.75836188892495 97.96515510080957 0 0 0
321 107 2 -0.35 103.35245485041717 103.59331796952475 97.71822586325513 0 0 0
322 108 1 0.7 40.29193151755814 66.49301559966663 93.11318359715546 0 0 0
323 108 2 -0.35 41.44298432208897 66.537342182318 93.2499775855181 0 0 0
324 108 2 -0.35 39.14087871302731 66.44868901701527 92.97638960879281 0 0 0
325 109 1 0.7 33.27671739192527 36.789206087956764 76.1867202893769 0 0 0
326 109 2 -0.35 32.128809731308465 36.890403554054714 76.05380273766674 0 0 0
327 109 2 -0.35 34.42462505254207 36.68800862185881 76.31963784108704 0 0 0
328 110 1 0.7 60.20790355755384 29.235091807430187 74.18800747915543 0 0 0
329 110 2 -0.35 60.9791463351265 30.00030820752663 74.59449049118109 0 0 0
330 110 2 -0.35 59.43666077998118 28.469875407333745 73.78152446712977 0 0 0
331 111 1 0.7 47.84170216547405 110.48829512227712 71.77612011170766 0 0 0
332 111 2 -0.35 47.00285039868378 110.78105318420603 72.52192198253427 0 0 0
333 111 2 -0.35 48.68055393226431 110.19553706034822 71.03031824088104 0 0 0
334 112 1 0.7 106.25071747053913 35.808527351267884 38.91919275928251 0 0 0
335 112 2 -0.35 105.37548721102225 35.093706906903556 39.18111588759457 0 0 0
336 112 2 -0.35 107.12594773005601 36.52334779563221 38.65726963097045 0 0 0
337 113 1 0.7 109.87270526116374 75.55732437901075 61.95083803355267 0 0 0
338 113 2 -0.35 108.88055409021825 76.13408629346594 62.11989940709927 0 0 0
339 113 2 -0.35 110.86485643210924 74.98056246455556 61.781776660006074 0 0 0
340 114 1 0.7 112.73482991975492 109.28646132083911 112.555419342851 0 0 0
341 114 2 -0.35 111.6521723504344 109.02409204483897 112.23197699775046 0 0 0
342 114 2 -0.35 113.81748748907543 109.54883059683925 112.87886168795153 0 0 0
343 115 1 0.7 83.93289529668768 70.17125142979029 43.22278048527557 0 0 0
344 115 2 -0.35 84.84652017770681 70.3055978757163 42.52075441079556 0 0 0
345 115 2 -0.35 83.01927041566854 70.03690498386428 43.92480655975558 0 0 0
346 116 1 0.7 105.27161602641996 25.050556040392514 9.69537087701977 0 0 0
347 116 2 -0.35 105.50069528892843 23.975523694623995 9.324657851837195 0 0 0
348 116 2 -0.35 105.0425367639115 26.125588386161034 10.066083902202344 0 0 0
349 117 1 0.7 110.09833007124175 72.63350736006791 26.358200661539193 0 0 0
350 117 2 -0.35 110.28885403338461 72.52182519497183 25.21941722565297 0 0 0
351 117 2 -0.35 109.90780610909889 72.745189525164 27.49698409742542 0 0 0
352 118 1 0.7 22.27851848922601 110.06024842153315 7.595220707634101 0 0 0
353 118 2 -0.35 21.123926652324702 110.13304082079057 7.68018515179292 0 0 0
354 118 2 -0.35 23.433110326127316 109.98745602227572 7.510256263475282 0 0 0
355 119 1 0.7 2.8744332063358433 10.598898886516178 0.6935856773953818 0 0 0
356 119 2 -0.35 3.8715289301229627 11.025515183614088 1.105166353151554 0 0 0
357 119 2 -0.35 1.877337482548724 10.172282589418268 0.2820050016392095 0 0 0
358 120 1 0.7 42.09447998418216 1.925094149506229 40.05737075119157 0 0 0
359 120 2 -0.35 41.44242659847788 1.0406722392347687 40.42915599407161 0 0 0
360 120 2 -0.35 42.746533369886436 2.8095160597776894 39.68558550831153 0 0 0
361 121 1 0.7 34.23021527669868 77.2281554747504 83.60906412993049 0 0 0
362 121 2 -0.35 33.184875853126826 76.7473721983409 83.7564172115115 0 0 0
363 121 2 -0.35 35.27555470027053 77.70893875115989 83.46171104834947 0 0 0
364 122 1 0.7 32.540831741663084 88.75908213144126 108.89338313317549 0 0 0
365 122 2 -0.35 31.587688437635535 88.16883992043651 108.59550400611944 0 0 0
366 122 2 -0.35 33.49397504569063 89.34932434244601 109.19126226023154 0 0 0
367 123 1 0.7 61.09031928055469 24.99614828266024 15.264186670661058 0 0 0
368 123 2 -0.35 61.08132740487888 25.530529830229778 14.234645264116853 0 0 0
369 123 2 -0.35 61.0993111562305 24.461766735090702 16.293728077205262 0 0 0
370 124 1 0.7 95.18537380042736 15.577463782661345 70.4337951892213 0 0 0
371 124 2 -0.35 94.0332962724514 15.674603688539749 70.528035351672 0 0 0
372 124 2 -0.35 96.33745132840332 15.480323876782942 70.3395550267706 0 0 0
373 125 1 0.7 85.79574524229194 99.09028720068294 95.45698187800915 0 0 0
374 125 2 -0.35 84.91677574545372 99.46997969761306 94.80211835680574 0 0 0
375 125 2 -0.35 86.67471473913017 98.71059470375282 96.11184539921256 0 0 0
376 126 1 0.7 95.49442369979548 34.77912246239331 102.7112254443165 0 0 0
377 126 2 -0.35 94.85029106285444 33.88356642346961 103.06993497468147 0 0 0
378 126 2 -0.35 96.13855633673651 35.67467850131701 102.35251591395152 0 0 0
379 127 1 0.7 2.566042627471519 2.478439913819749 25.139631568519228 0 0 0
380 127 2 -0.35 2.2155804971403747 3.428223695175987 25.705923952254345 0 0 0
381 127 2 -0.35 2.9165047578026635 1.528656132463511 24.57333918478411 0 0 0
382 128 1 0.7 11.787772102648287 87.0857292097461 44.85082820283753 0 0 0
383 128 2 -0.35 10.879333309031866 86.56171382078182 44.35509961743888 0 0 0
384 128 2 -0.35 12.696210896264708 87.60974459871039 45.346556788236185 0 0 0
385 129 1 0.7 97.86960509040841 49.45275449401361 47.444780886846026 0 0 0
386 129 2 -0.35 96.80910113045157 49.91756107718704 47.514682182645714 0 0 0
387 129 2 -0.35 98.93010905036526 48.987947910840184 47.37487959104634 0 0 0
388 130 1 0.7 109.43236522117274 34.76227225026222 49.50971015706179 0 0 0
389 130 2 -0.35 108.36252589368202 34.53607677533189 49.12256752123461 0 0 0
390 130 2 -0.35 110.50220454866347 34.98846772519255 49.89685279288897 0 0 0
391 131 1 0.7 84.69860973753902 59.533858818250636 85.56515833854915 0 0 0
392 131 2 -0.35 83.96858211232143 58.744504519115566 86.0005655696055 0 0 0
393 131 2 -0.35 85.4286373627566 60.323213117385706 85.12975110749281 0 0 0
394 132 1 0.7 18.61619599564755 82.40609884839789 54.303345023329996 0 0 0