LAMMPS data file via write_data, version 29 Aug 2024, timestep = 4000000, units = real

1500 atoms
2 atom types
1000 bonds
1 bond types
500 angles
1 angle types

0 115 xlo xhi
0 115 ylo yhi
0 115 zlo zhi

Masses

1 12.0107
2 15.9994

PairIJ Coeffs # lj/cut/coul/long/gpu

1 1 0.053649 2.8 12
1 2 0.0917684 2.925 12
2 2 0.156973 3.05 12

Bond Coeffs # harmonic

1 0 1.16

Angle Coeffs # harmonic

1 0 180

Atoms # full

1341 447 2 -0.35 5.996745779486476 12.746903154105178 5.7290160941719215 0 2 -7
1339 447 1 0.7 6.130299531848585 12.747245700737073 4.576729984782724 0 2 -7
1340 447 2 -0.35 6.263853284210694 12.747588247368967 3.4244438753935262 0 2 -7
1117 373 1 0.7 9.259020871091709 11.346863813650769 12.464744150938223 2 -1 5
1119 373 2 -0.35 8.309834205013857 12.007495715920637 12.555354098759526 2 -1 5
1118 373 2 -0.35 10.20820753716956 10.6862319113809 12.374134203116919 2 -1 5
938 313 2 -0.35 2.5363091002486335 17.59678731057518 4.27804771507979 3 7 3
937 313 1 0.7 1.9178870450270498 18.576500877632277 4.3356279906844035 3 7 3
450 150 2 -0.35 28.690077912597076 6.552494429201977 12.775512869933932 0 1 -3
448 150 1 0.7 27.846484963664587 7.2423398089172295 13.173085867756363 0 1 -3
648 216 2 -0.35 23.44247976335767 4.56357815342165 12.671593121103014 0 1 3
449 150 2 -0.35 27.002892014732097 7.932185188632481 13.570658865578794 0 1 -3
647 216 2 -0.35 24.52314529692791 6.140306803064763 11.356873086287077 0 1 3
646 216 1 0.7 23.98281253014279 5.351942478243207 12.014233103695044 0 1 3
1414 472 1 0.7 23.0056985037737 18.47176610476264 15.47346784186158 4 3 -1
77 26 2 -0.35 29.07710554024165 4.5508779555773895 18.170538205435882 5 7 3
76 26 1 0.7 28.702873245724717 5.328273740947527 17.395163468530992 5 7 3
1415 472 2 -0.35 23.681091141197143 17.547440246354277 15.286207347383707 4 3 -1
1220 407 2 -0.35 36.26617652171649 0.4463362824880153 11.489877501011772 1 -1 -7
78 26 2 -0.35 28.328640951207785 6.105669526317664 16.6197887316261 5 7 3
764 255 2 -0.35 35.33691070967314 17.90040594356388 0.9001294731750715 1 5 3
763 255 1 0.7 35.62137364337254 16.776021086446356 0.9210945020415408 1 5 3
765 255 2 -0.35 35.905836577071945 15.651636229328835 0.9420595309080099 1 5 3
1029 343 2 -0.35 42.57258325968527 15.184099228815553 17.07427150390202 -5 2 5
1028 343 2 -0.35 41.14741256091026 13.47070053797374 17.71890582316928 -5 2 5
1027 343 1 0.7 41.859997910297764 14.327399883394646 17.39658866353565 -5 2 5
690 230 2 -0.35 44.518483772785984 11.161125582959695 7.803778390439013 -1 3 1
688 230 1 0.7 45.00281459499283 11.551824118150689 8.7827463721727 -1 3 1
689 230 2 -0.35 45.48714541719967 11.942522653341682 9.761714353906386 -1 3 1
1399 467 1 0.7 55.80252123730172 1.043053236000019 10.726395112416107 2 0 -3
1401 467 2 -0.35 56.485297216085115 1.2761635594910068 9.818057873347481 2 0 -3
2 1 2 -0.35 57.30656722098049 3.3337276243443474 6.074469473449074 -5 -2 3
1400 467 2 -0.35 55.11974525851832 0.8099429125090316 11.634732351484734 2 0 -3
473 158 2 -0.35 68.18619910569588 1.7022472137136366 3.4851849394458614 -5 2 3
472 158 1 0.7 68.16439080299016 1.3258423685734453 2.388169082454363 -5 2 3
474 158 2 -0.35 68.14258250028443 0.9494375234332539 1.2911532254628646 -5 2 3
274 92 1 0.7 75.9140739994425 17.083550448710206 4.999506452141334 8 -1 4
275 92 2 -0.35 76.55730344865611 17.53095788752691 4.1441220593942925 8 -1 4
276 92 2 -0.35 75.27084455022887 16.636143009893505 5.854890844888375 8 -1 4
1 1 1 0.7 57.3273277505722 2.2329762761184315 6.439867160619892 -5 -2 3
3 1 2 -0.35 57.348088280163914 1.1322249278925158 6.80526484779071 -5 -2 3
1047 349 2 -0.35 78.73004962563155 7.297514269576935 8.733306440670178 -6 1 4
789 263 2 -0.35 78.47188215949213 9.360119893020254 4.815836747551067 1 -1 8
787 263 1 0.7 79.04999985047718 8.38419524500062 5.058635052235333 1 -1 8
788 263 2 -0.35 79.62811754146225 7.408270596980989 5.301433356919599 1 -1 8
1046 349 2 -0.35 76.86625344243957 6.956235403204538 7.3945784911260475 -6 1 4
1045 349 1 0.7 77.79815153403557 7.126874836390736 8.063942465898114 -6 1 4
815 272 2 -0.35 82.42757582197484 16.314488629379554 2.1029658843088113 -4 0 0
163 55 1 0.7 95.20759986529761 8.387171837202269 15.872997077153359 -1 -1 7
165 55 2 -0.35 95.59945025190895 7.380475621978539 16.29562694449383 -1 -1 7
814 272 1 0.7 81.45169733689524 16.562247972241956 2.6790531089378424 -4 0 0
1182 394 2 -0.35 87.3895530676919 1.0291919795996294 3.589888675864276 0 5 -5
1180 394 1 0.7 87.87315161893589 0.1923701414414189 2.948435908768689 0 5 -5
816 272 2 -0.35 80.47581885181563 16.81000731510435 3.255140333566871 -4 0 0
164 55 2 -0.35 94.81574947868627 9.393868052426003 15.45036720981288 -1 -1 7
1334 445 2 -0.35 10.392228984795974 34.48051348156532 1.9542896038278181 3 -1 -6
673 225 1 0.7 3.297494047083801 28.34588737190518 17.88708896027556 2 0 8
675 225 2 -0.35 4.04189984459757 28.676242466100696 18.713118935739356 2 0 8
1333 445 1 0.7 10.570144484575325 33.47833138169088 2.510686147336784 3 -1 -6
1335 445 2 -0.35 10.748059984354676 32.47614928181644 3.067082690845749 3 -1 -6
674 225 2 -0.35 2.5530882495700324 28.015532277709667 17.061058984811762 2 0 8
939 313 2 -0.35 1.2994649898054655 19.556214444689374 4.393208266289018 3 7 3
1416 472 2 -0.35 22.330305866350262 19.396091963171003 15.660728336339455 4 3 -1
1218 406 2 -0.35 49.20803971800556 27.333290870922273 16.902984635573738 1 1 3
1216 406 1 0.7 49.96046651971897 27.051029264298833 16.066454723682448 1 1 3
1217 406 2 -0.35 50.71289332143238 26.768767657675394 15.229924811791161 1 1 3
1229 410 2 -0.35 73.57117828440231 34.09543255476192 5.515522090964563 5 0 4
1228 410 1 0.7 73.84514890578636 33.14177462634947 6.11641863297033 5 0 4
1230 410 2 -0.35 74.11911952717041 32.188116697937026 6.717315174976097 5 0 4
1436 479 2 -0.35 92.05384771200268 23.057638267111344 16.16270528420068 -4 -2 6
1437 479 2 -0.35 90.6716610465969 21.265982439934422 16.67449568945834 -4 -2 6
1435 479 1 0.7 91.36275437929979 22.16181035352288 16.41860048682951 -4 -2 6
238 80 1 0.7 85.25787302252355 26.70046580719033 2.0792810213186126 4 3 4
239 80 2 -0.35 84.92697599333833 26.011731326349473 1.2064969867623185 4 3 4
240 80 2 -0.35 85.58877005170878 27.389200288031187 2.9520650558749066 4 3 4
603 201 2 -0.35 87.78288960887096 19.14261743266823 10.095170647899025 -5 -1 -7
601 201 1 0.7 88.01017322585177 19.73530839102796 9.124264068803855 -5 -1 -7
602 201 2 -0.35 88.23745684283259 20.32799934938769 8.153357489708686 -5 -1 -7
1156 386 1 0.7 1.8684173591882922 46.10092582346877 16.801491025884985 -1 -5 1
1157 386 2 -0.35 0.955799015909837 45.81670063132339 17.458715340453143 -1 -5 1
1158 386 2 -0.35 2.7810357024667476 46.38515101561414 16.14426671131683 -1 -5 1
4 2 1 0.7 14.832777994627078 57.1648885497541 3.0249235983581766 -2 -2 -4
6 2 2 -0.35 15.380080339039392 58.06491720079717 2.5391164647101983 -2 -2 -4
1322 441 2 -0.35 15.359847323290897 50.73697257432655 18.39416466053761 -2 0 -5
1321 441 1 0.7 16.492660600362182 50.93172021824677 18.550393449426632 -2 0 -5
1323 441 2 -0.35 17.625473877433464 51.12646786216698 18.706622238315656 -2 0 -5
5 2 2 -0.35 14.285475650214764 56.264859898711045 3.510730732006155 -2 -2 -4
977 326 2 -0.35 30.641853621167318 42.22196832796552 6.509863121385368 -3 8 1
976 326 1 0.7 31.739282195298077 42.38294143440635 6.849477879137353 -3 8 1
978 326 2 -0.35 32.83671076942884 42.543914540847176 7.189092636889339 -3 8 1
283 95 1 0.7 37.052851358072814 54.93062087521463 19.368649079282783 -2 -1 0
284 95 2 -0.35 36.05462209034795 54.723625990122216 18.815213042686604 -2 -1 0
1478 493 2 -0.35 37.933990906456884 46.72234948749354 11.893598397320043 -7 1 1
497 166 2 -0.35 44.881710369425065 51.24545517247018 12.959904088419758 -6 1 -3
496 166 1 0.7 44.660716251113605 50.83095592646679 14.020541620630333 -6 1 -3
355 119 1 0.7 47.02731332248543 52.273544227442976 11.30535939682304 2 -3 5
356 119 2 -0.35 46.630975235964755 51.85243897646402 10.299781707745295 2 -3 5
350 117 2 -0.35 44.37966841716937 45.29991415245279 5.873401388203389 4 8 0
349 117 1 0.7 44.730580081662666 46.065737495881194 5.075920598227005 4 8 0
357 119 2 -0.35 47.42365140900611 52.69464947842193 12.310937085900784 2 -3 5
93 31 2 -0.35 49.32601906488163 45.76842984348687 15.357240406328467 3 -5 -4
91 31 1 0.7 48.72887285180595 45.14362714821428 16.130957403809337 3 -5 -4
92 31 2 -0.35 48.13172663873027 44.51882445294168 16.904674401290205 3 -5 -4
1479 493 2 -0.35 40.24155676434513 46.959797544910785 11.927631198201055 -7 1 1
1477 493 1 0.7 39.087773835401 46.84107351620216 11.910614797760548 -7 1 1
351 117 2 -0.35 45.08149174615596 46.83156083930959 4.278439808250621 4 8 0
498 166 2 -0.35 44.439722132802146 50.41645668046341 15.081179152840907 -6 1 -3
1139 380 2 -0.35 48.61373564706432 54.842216466984205 6.698262037336001 0 -7 2
1138 380 1 0.7 49.656791209373004 55.29417717111761 6.467249882125423 0 -7 2
1140 380 2 -0.35 50.6998467716817 55.746137875251016 6.236237726914845 0 -7 2
65 22 2 -0.35 66.15679378539994 50.720807625221326 14.886024593084116 3 4 3
64 22 1 0.7 67.21208079817308 51.198637802853106 14.946420304998092 3 4 3
66 22 2 -0.35 68.2673678109462 51.67646798048489 15.00681601691207 3 4 3
104 35 2 -0.35 69.21780995308504 45.91370687732932 8.643818931050303 4 10 6
103 35 1 0.7 68.22791743728023 46.4399003715123 8.941867943516701 4 10 6
105 35 2 -0.35 67.23802492147541 46.966093865695285 9.2399169559831 4 10 6
979 327 1 0.7 76.85049799524698 55.94370399225512 13.898404504569006 1 1 2
980 327 2 -0.35 75.8077547314578 56.44541940437689 13.817360497621543 1 1 2
515 172 2 -0.35 77.997006833775 45.00909801498181 7.215969293128207 3 -3 6
95 32 2 -0.35 80.67125722442445 42.47126086022077 13.727267407628279 -3 6 -1
516 172 2 -0.35 77.68331635375894 46.7488557139369 8.718381164644507 3 -3 6
514 172 1 0.7 77.84016159376698 45.878976864459354 7.967175228886357 3 -3 6
981 327 2 -0.35 77.89324125903616 55.441988580133334 13.97944851151647 1 1 2
96 32 2 -0.35 82.50981159763097 42.38260840288771 12.315085210256752 -3 6 -1
94 32 1 0.7 81.5905344110277 42.42693463155424 13.021176308942515 -3 6 -1
312 104 2 -0.35 80.79233379821677 45.19129115423662 9.042465842599539 -2 -5 3
310 104 1 0.7 81.8830376586795 45.17122217916062 8.648051941970307 -2 -5 3
311 104 2 -0.35 82.97374151914224 45.15115320408462 8.253638041341077 -2 -5 3
1175 392 2 -0.35 82.01488877304539 39.66087804066828 9.792060828185143 -8 2 6
1174 392 1 0.7 80.90027485726195 39.34730884428907 9.862133489223158 -8 2 6
1176 392 2 -0.35 79.78566094147851 39.03373964790985 9.932206150261171 -8 2 6
802 268 1 0.7 88.7959217252478 46.424516027593775 16.044402981909176 -2 0 -3
804 268 2 -0.35 89.4777764050649 46.55836206225875 16.97325142735888 -2 0 -3
803 268 2 -0.35 88.11406704543069 46.2906699929288 15.115554536459472 -2 0 -3
785 262 2 -0.35 89.47177284906475 57.20655956956122 1.5496696953151445 5 2 1
784 262 1 0.7 90.46896882027623 56.617489494116036 1.6144511835269282 5 2 1
786 262 2 -0.35 91.46616479148771 56.02841941867084 1.679232671738712 5 2 1
279 93 2 -0.35 110.34287749424243 56.33672134079835 14.135380330285741 -3 2 1
277 93 1 0.7 109.96020855979319 57.36471453301954 13.758028394611989 -3 2 1
278 93 2 -0.35 109.57753962534396 58.392707725240726 13.380676458938236 -3 2 1
1349 450 2 -0.35 110.08037002277099 49.609241180062604 7.332022915500355 1 7 -2
1393 465 1 0.7 105.06718996686877 51.054266570651365 4.734588112453454 -2 -3 -4
1395 465 2 -0.35 104.48720466170812 50.17696930022873 5.224043468031537 -2 -3 -4
1394 465 2 -0.35 105.64717527202941 51.931563841073995 4.24513275687537 -2 -3 -4
1348 450 1 0.7 110.22166969660573 50.68475293882135 7.7430081450972805 1 7 -2
1350 450 2 -0.35 110.36296937044047 51.760264697580084 8.153993374694206 1 7 -2
501 167 2 -0.35 114.02185602660228 44.03135473014994 6.546623168794784 0 -1 3
499 167 1 0.7 114.20425100957594 45.176566857821996 6.5752806777011905 0 -1 3
500 167 2 -0.35 114.38664599254959 46.32177898549405 6.603938186607598 0 -1 3
261 87 2 -0.35 16.085057869867455 69.19792337031127 17.254727086059905 -2 -2 0
259 87 1 0.7 16.34584251634935 68.32288654492554 17.970200301755526 -2 -2 0
260 87 2 -0.35 16.606627162831245 67.4478497195398 18.685673517451146 -2 -2 0
808 270 1 0.7 3.93480259281365 67.75626790685247 8.535291785798119 2 -2 -4
809 270 2 -0.35 3.56166997508788 67.94539085293276 7.453346980895583 2 -2 -4
810 270 2 -0.35 4.307935210539421 67.56714496077218 9.617236590700655 2 -2 -4
1304 435 2 -0.35 12.025365446052424 61.7575708521175 3.5765472841500796 -5 2 -5
1303 435 1 0.7 12.644467943425044 61.415430914411374 2.6571712126899674 -5 2 -5
1305 435 2 -0.35 13.263570440797661 61.073290976705245 1.7377951412298551 -5 2 -5
1356 452 2 -0.35 18.264047869472808 60.753438711719554 2.4078676427523877 3 -7 1
296 99 2 -0.35 19.470870589623722 68.85016837580208 18.729601303096203 3 1 1
297 99 2 -0.35 19.116127081005647 66.77396990406136 19.702204484786126 3 1 1
295 99 1 0.7 19.293498835314683 67.81206913993172 19.215902893941163 3 1 1
1354 452 1 0.7 19.215258357873573 60.43006982069263 1.8280132066451107 3 -7 1
707 236 2 -0.35 25.334971416263926 69.10031269493976 11.364556677815843 -5 4 1
706 236 1 0.7 25.05164435954448 69.84889291424146 10.524941626615806 -5 4 1
708 236 2 -0.35 24.768317302825032 70.59747313354316 9.68532657541577 -5 4 1
1469 490 2 -0.35 26.508372093431106 70.06388040389086 15.067996844636294 1 -3 -2
1468 490 1 0.7 25.947773825435227 70.80037280340936 14.368776902579869 1 -3 -2
967 323 1 0.7 31.263622233067355 73.42677850359928 6.832708151030911 3 -2 0
969 323 2 -0.35 31.47419158975589 72.71219418183799 7.721881808489008 3 -2 0
37 13 1 0.7 31.711799191160726 67.2106260028614 4.231121440290227 -6 -1 3
39 13 2 -0.35 32.8277764535177 67.52588777154057 4.202753022800281 -6 -1 3
1470 490 2 -0.35 25.387175557439353 71.53686520292784 13.669556960523444 1 -3 -2
38 13 2 -0.35 30.59582192880375 66.89536423418224 4.259489857780173 -6 -1 3
968 323 2 -0.35 31.05305287637882 74.14136282536059 5.943534493572814 3 -2 0
846 282 2 -0.35 32.66598481802327 69.96683792379783 2.4327106485399614 -1 -3 -1
1355 452 2 -0.35 20.166468846274338 60.106700929665706 1.2481587705378334 3 -7 1
844 282 1 0.7 32.67124639329017 70.65381122133473 3.3673977642613795 -1 -3 -1
774 258 2 -0.35 29.917680140615868 77.70123733014121 2.3439892052539073 -2 2 3
845 282 2 -0.35 32.67650796855707 71.34078451887163 4.3020848799827975 -1 -3 -1
772 258 1 0.7 29.139442340031376 77.27643022570795 3.091976404185106 -2 2 3
773 258 2 -0.35 28.361204539446888 76.8516231212747 3.839963603116305 -2 2 3
203 68 2 -0.35 52.93338190061202 59.13765169062789 15.560371313733286 7 2 -6
202 68 1 0.7 52.29989854026804 60.10907035149219 15.585760632157836 7 2 -6
204 68 2 -0.35 51.66641517992405 61.08048901235649 15.611149950582387 7 2 -6
965 322 2 -0.35 69.11199087164822 59.58222535709514 14.210145091913198 -4 -1 4
964 322 1 0.7 68.21549627322153 59.56013620089873 13.474339747973247 -4 -1 4
966 322 2 -0.35 67.31900167479485 59.538047044702324 12.738534404033297 -4 -1 4
552 184 2 -0.35 76.08727865655885 69.2223839510063 13.722497191687616 0 0 2
551 184 2 -0.35 75.06150768141607 71.03790709558737 12.705605054808213 0 0 2
550 184 1 0.7 75.57439316898747 70.13014552329683 13.214051123247915 0 0 2
335 112 2 -0.35 80.72740529450805 69.26523992074327 12.67614830351241 1 -5 -4
334 112 1 0.7 79.71090668910006 69.81327166817972 12.566641276332337 1 -5 -4
336 112 2 -0.35 78.69440808369208 70.36130341561619 12.457134249152263 1 -5 -4
115 39 1 0.7 94.50754864244284 75.65792226811098 15.866444788268735 5 -6 -1
116 39 2 -0.35 94.12586733999845 74.66602188952739 15.40162974727816 5 -6 -1
864 288 2 -0.35 104.99346746233725 74.89084802704583 7.299727526839396 -2 -7 -1
863 288 2 -0.35 105.5738038825139 72.72642647847286 6.698987150727979 -2 -7 -1
862 288 1 0.7 105.28363567242558 73.80863725275934 6.999357338783687 -2 -7 -1
117 39 2 -0.35 94.88922994488722 76.64982264669456 16.331259829259313 5 -6 -1
1163 388 2 -0.35 103.44093678275303 63.76822221618895 18.60813411543216 4 0 5
1151 384 2 -0.35 105.01274309140878 75.76954669813769 10.641072607574646 0 -3 0
1150 384 1 0.7 105.6289859837689 74.80691002680825 10.443145003068976 0 -3 0
1152 384 2 -0.35 106.245228876129 73.84427335547883 10.245217398563303 0 -3 0
359 120 2 -0.35 97.61801885436512 76.64636438717073 12.320330727585052 -3 -7 -6
251 84 2 -0.35 101.39255023416086 67.22739760122745 18.332624876347232 -2 -2 3
90 30 2 -0.35 5.584824553809109 80.6146922290032 14.555101761797129 -5 4 -1
88 30 1 0.7 5.080077065603614 81.45827393702915 13.939309690532172 -5 4 -1
89 30 2 -0.35 4.57532957739812 82.3018556450551 13.323517619267216 -5 4 -1
1197 399 2 -0.35 11.045257764750462 87.608782112662 6.309747517828998 2 -6 -2
1196 399 2 -0.35 13.29736478752006 87.21668216094726 5.913929900928009 2 -6 -2
1195 399 1 0.7 12.17131127613526 87.41273213680464 6.111838709378504 2 -6 -2
224 75 2 -0.35 0.7575988138417915 78.19332310273363 14.28065965666566 5 0 2
223 75 1 0.7 1.0280591468570137 78.65867386141124 15.30822954706868 5 0 2
225 75 2 -0.35 1.298519479872236 79.12402462008886 16.3357994374717 5 0 2
807 269 2 -0.35 7.688125966184102 82.59362334917311 13.114136182523731 0 -2 4
805 269 1 0.7 7.73559555916851 83.70804251724361 12.795676521690446 0 -2 4
806 269 2 -0.35 7.7830651521529175 84.8224616853141 12.47721686085716 0 -2 4
120 40 2 -0.35 32.319900581080276 85.46807346121822 5.517393377411679 2 -6 0
118 40 1 0.7 31.71982589171457 86.12288521329185 4.771248661871532 2 -6 0
119 40 2 -0.35 31.119751202348866 86.77769696536546 4.025103946331385 2 -6 0
716 239 2 -0.35 26.3876973586829 96.77796770791281 2.1435411881023745 -1 -2 2
1344 448 2 -0.35 40.48065739824589 81.11181484666521 18.117315109889596 -3 3 -3
1342 448 1 0.7 40.751317276580195 80.01654645421722 17.847629406219486 -3 3 -3
1343 448 2 -0.35 41.02197715491451 78.92127806176923 17.577943702549376 -3 3 -3
28 10 1 0.7 45.28788273648653 78.47944822780617 19.023846257196958 -1 3 -3
29 10 2 -0.35 45.61123216012927 77.76869496388565 18.166014718924668 -1 3 -3
429 143 2 -0.35 59.958455625937404 93.93030208862417 1.1366399514969499 1 4 -3
427 143 1 0.7 60.7888497295227 94.73207831935514 1.0217464853440081 1 4 -3
428 143 2 -0.35 61.619243833108 95.53385455008609 0.9068530191910666 1 4 -3
1085 362 2 -0.35 73.30454221212807 86.54287421425903 10.525969870948796 -4 2 -1
1084 362 1 0.7 73.71817253512283 85.47382477970862 10.703855402644109 -4 2 -1
1086 362 2 -0.35 74.13180285811761 84.40477534515821 10.88174093433942 -4 2 -1
894 298 2 -0.35 81.42174033777499 89.79397569563612 2.4063926593224005 -6 -4 5
892 298 1 0.7 80.57300456335149 89.10444129301315 2.019365666963084 -6 -4 5
893 298 2 -0.35 79.724268788928 88.41490689039018 1.6323386746037676 -6 -4 5
731 244 2 -0.35 88.79578748970889 86.83075449521866 13.39606184275073 -2 2 -6
730 244 1 0.7 88.09844735607005 86.73412225070442 12.47411881450107 -2 2 -6
732 244 2 -0.35 87.40110722243121 86.63749000619019 11.552175786251413 -2 2 -6
1267 423 1 0.7 102.43648417694618 80.42588396992599 8.50857672489573 1 5 -1
1269 423 2 -0.35 101.41909320830067 80.36754792570301 7.954399386077247 1 5 -1
1268 423 2 -0.35 103.4538751455917 80.48422001414897 9.062754063714213 1 5 -1
233 78 2 -0.35 107.51469914611312 78.60904227271229 114.53536034861273 1 -4 3
360 120 2 -0.35 96.69112321588084 78.24982490937867 13.717534660116492 -3 -7 -6
358 120 1 0.7 97.15457103512297 77.4480946482747 13.018932693850772 -3 -7 -6
186 62 2 -0.35 9.536559682870843 105.40225507188502 15.997366678767195 -3 4 -4
184 62 1 0.7 10.248985617447303 104.50387546910595 15.821402543065624 -3 4 -4
185 62 2 -0.35 10.961411552023765 103.60549586632688 15.645438407364052 -3 4 -4
129 43 2 -0.35 8.34724462652076 99.48451980618194 19.23918315800169 1 -5 1
128 43 2 -0.35 6.353694171989002 99.40376602557646 18.055276315315588 1 -5 1
127 43 1 0.7 7.350469399254881 99.4441429158792 18.64722973665864 1 -5 1
715 239 1 0.7 26.393279856788727 97.22506871131252 3.21390072044371 -1 -2 2
717 239 2 -0.35 26.398862354894554 97.67216971471221 4.284260252785045 -1 -2 2
555 185 2 -0.35 22.17430384322192 106.33488925723294 15.820818993243908 -3 -3 0
553 185 1 0.7 22.280230712271557 105.30767855075058 16.349229499291955 -3 -3 0
554 185 2 -0.35 22.38615758132119 104.28046784426822 16.87764000534 -3 -3 0
767 256 2 -0.35 32.002810044776815 109.27688023286731 3.0820715405948604 2 -7 8
766 256 1 0.7 32.943141902111996 108.68466511966673 2.7494196838797835 2 -7 8
768 256 2 -0.35 33.88347375944718 108.09245000646615 2.4167678271647066 2 -7 8
1219 407 1 0.7 35.12546003526231 0.3856601191858325 11.288174003920204 1 -1 -7
1221 407 2 -0.35 33.98474354880813 0.3249839558836497 11.086470506828634 1 -1 -7
372 124 2 -0.35 47.821607036709224 112.20288074780196 5.62871064176852 0 1 -1
370 124 1 0.7 48.24323460963918 111.30852935898312 5.0221088093762365 0 1 -1
371 124 2 -0.35 48.66486218256914 110.41417797016429 4.415506976983954 0 1 -1
653 218 2 -0.35 58.28975982605992 108.3014908390173 2.8659813181569858 1 -8 8
494 165 2 -0.35 72.70811865529568 98.38726102609351 10.504705163586063 -2 -1 -5
493 165 1 0.7 73.61924828810864 99.04877171284647 10.78371484714767 -2 -1 -5
495 165 2 -0.35 74.5303779209216 99.71028239959944 11.062724530709273 -2 -1 -5
795 265 2 -0.35 67.5470123065345 110.14230072216048 9.580721920774678 6 -1 -1
793 265 1 0.7 67.25301110117601 110.79079814504362 10.49648083214977 6 -1 -1
794 265 2 -0.35 66.95900989581753 111.43929556792676 11.41223974352486 6 -1 -1
652 218 1 0.7 58.09495719032138 107.29568140752042 2.3219231221694825 1 -8 8
654 218 2 -0.35 57.90015455458284 106.28987197602353 1.777864926181979 1 -8 8
1068 356 2 -0.35 63.689257373544805 107.96172031578753 19.814322550781792 0 -4 -1
1181 394 2 -0.35 88.35675017017988 114.3555483032832 2.3069831416731024 0 4 -5
53 18 2 -0.35 83.54531262125374 108.08881109529692 4.381808470065961 -2 -5 -2
54 18 2 -0.35 84.39253299835406 110.20013059706022 4.836723400680343 -2 -5 -2
52 18 1 0.7 83.9689228098039 109.14447084617858 4.609265935373152 -2 -5 -2
338 113 2 -0.35 85.30457757743407 100.27759879761824 12.402721637574766 5 11 -2
337 113 1 0.7 86.11457833712853 100.93693585578816 12.907472480088101 5 11 -2
339 113 2 -0.35 86.924579096823 101.59627291395809 13.412223322601436 5 11 -2
1466 489 2 -0.35 87.69754075697502 107.64250336540776 6.095027094668271 -2 -4 2
1465 489 1 0.7 86.92588575874406 106.85288848417134 5.7391382032469265 -2 -4 2
1467 489 2 -0.35 86.15423076051309 106.06327360293493 5.383249311825581 -2 -4 2
1357 453 1 0.7 90.92031757228814 101.17156867816985 15.3602536424756 1 2 -6
1359 453 2 -0.35 90.74825433636327 101.38165134248246 14.232486150039495 1 2 -6
1358 453 2 -0.35 91.09238080821301 100.96148601385725 16.488021134911705 1 2 -6
1133 378 2 -0.35 113.42337276715266 101.50601770717635 10.02050118790676 3 0 -4
1132 378 1 0.7 113.05297770909439 101.38276457416971 8.928156843769065 3 0 -4
1134 378 2 -0.35 112.68258265103613 101.25951144116306 7.835812499631371 3 0 -4
12 4 2 -0.35 103.23208624206012 111.06041353689544 6.507324118614217 4 -2 2
10 4 1 0.7 103.89237620007516 111.82896562237282 7.072076155576097 4 -2 2
11 4 2 -0.35 104.5526661580902 112.5975177078502 7.636828192537977 4 -2 2
422 141 2 -0.35 105.7604911249576 107.490000695745 17.906408047811397 -5 1 -5
421 141 1 0.7 106.14727458936996 107.06840152113347 16.89732297328874 -5 1 -5
423 141 2 -0.35 106.53405805378233 106.64680234652192 15.888237898766084 -5 1 -5
1493 498 2 -0.35 28.277998032366938 1.693757831540334 24.447923603576857 0 -5 3
1492 498 1 0.7 29.204109323378006 2.330865823382108 24.73429972582098 0 -5 3
1494 498 2 -0.35 30.130220614389078 2.967973815223882 25.020675848065096 0 -5 3
1463 488 2 -0.35 19.608968275380185 7.875423394996512 36.684010121435584 0 -1 0
1462 488 1 0.7 20.187261739126736 8.801573001033121 37.075703339435414 0 -1 0
701 234 2 -0.35 57.268962417542745 15.311488635968564 29.01192614953283 0 5 -3
700 234 1 0.7 56.540837218359194 15.982092845962796 28.407175219105152 0 5 -3
702 234 2 -0.35 55.812712019175635 16.65269705595703 27.802424288677475 0 5 -3
682 228 1 0.7 52.77158002888907 4.693772209168666 29.832983911735333 1 6 7
683 228 2 -0.35 52.159448785874375 4.155546974656424 29.007630085634457 1 6 7
684 228 2 -0.35 53.38371127190376 5.231997443680909 30.65833773783621 1 6 7
521 174 2 -0.35 70.59913575149139 114.37914320715622 24.136363627999195 8 -4 2
520 174 1 0.7 69.89207069234584 114.22984840947689 23.228966214776595 8 -4 2
842 281 2 -0.35 67.19477181626321 10.88359302944515 22.884180901924477 6 -3 -2
841 281 1 0.7 67.67604245860474 10.319249601958322 21.992275601642753 6 -3 -2
843 281 2 -0.35 68.15731310094625 9.754906174471495 21.10037030136103 6 -3 -2
23 8 2 -0.35 76.34054049130098 12.375480801095852 33.75609877214283 -4 6 -6
22 8 1 0.7 76.0229014270434 11.804743874585736 34.714725282091905 -4 6 -6
24 8 2 -0.35 75.70526236278582 11.23400694807562 35.673351792040975 -4 6 -6
1193 398 2 -0.35 63.88484998882849 10.588238383565564 23.763492627286798 -1 3 8
1194 398 2 -0.35 62.85798992382807 12.553342097317433 23.080612109844846 -1 3 8
1192 398 1 0.7 63.37141995632828 11.570790240441498 23.422052368565822 -1 3 8
45 15 2 -0.35 77.24789614358795 14.218441388520768 21.56544197115411 3 0 1
43 15 1 0.7 77.62265308452069 13.24156412515395 22.066309266491732 3 0 1
44 15 2 -0.35 77.99741002545345 12.26468686178713 22.56717656182935 3 0 1
1302 434 2 -0.35 93.3022421123192 3.3699419652577243 32.130302372119736 -4 -2 -1
1300 434 1 0.7 93.1538677303716 4.177383798347263 31.310776454921292 -4 -2 -1
1301 434 2 -0.35 93.005493348424 4.984825631436802 30.49125053772284 -4 -2 -1
1275 425 2 -0.35 89.2392784698591 18.166181195882643 32.285874771282025 1 4 -3
1273 425 1 0.7 89.74078539905211 18.947803043908692 31.590779032077712 1 4 -3
1421 474 2 -0.35 97.67275316618553 17.80196571685069 38.24641237492024 -4 5 3
86 29 2 -0.35 11.150214925022421 26.15924261027245 31.187513324224614 -8 1 -3
87 29 2 -0.35 11.453746696777042 24.554036913599873 29.540217620684167 -8 1 -3
85 29 1 0.7 11.301980810899732 25.35663976193616 30.36386547245439 -8 1 -3
762 254 2 -0.35 32.95134052406256 26.947978343149604 29.90598962852795 4 4 -5
760 254 1 0.7 33.575573307738374 27.504489436897927 29.10210603352135 4 4 -5
761 254 2 -0.35 34.19980609141418 28.061000530646254 28.298222438514742 4 4 -5
446 149 2 -0.35 39.693464217751 30.662673362225018 20.07004785367277 0 3 -1
445 149 1 0.7 39.385050438540176 30.849300500130113 21.1726136123418 0 3 -1
447 149 2 -0.35 39.07663665932935 31.035927638035208 22.27517937101083 0 3 -1
216 72 2 -0.35 52.69498060281487 21.87789766117272 20.937698779262767 -1 -4 5
1212 404 2 -0.35 39.88995376827909 26.609257265356387 35.40705458351514 1 2 0
1210 404 1 0.7 40.943251510819415 26.56087618202858 35.8906072035427 1 2 0
1211 404 2 -0.35 41.99654925335974 26.51249509870077 36.37415982357025 1 2 0
214 72 1 0.7 52.65589063919832 21.60458808608917 22.064363703235696 -1 -4 5
664 222 1 0.7 56.560693556058844 26.264071511004712 30.59452659795321 4 4 2
215 72 2 -0.35 52.616800675581764 21.331278511005618 23.191028627208624 -1 -4 5
665 222 2 -0.35 57.296990794600674 26.750141807949092 29.841398426296408 4 4 2
666 222 2 -0.35 55.824396317517014 25.778001214060332 31.34765476961001 4 4 2
1376 459 2 -0.35 66.33413689984607 27.0966554986812 32.491852857423126 2 -2 0
1375 459 1 0.7 65.1986124130545 26.909669653025368 32.346180507879104 2 -2 0
1377 459 2 -0.35 64.06308792626294 26.722683807369535 32.20050815833508 2 -2 0
817 273 1 0.7 67.2597309424481 38.819842515521806 36.05029281631414 6 5 -3
819 273 2 -0.35 67.42695089028315 38.85963677380447 34.903098889354716 6 5 -3
321 107 2 -0.35 89.6517563807366 32.559459340959656 29.686946158258557 5 3 4
320 107 2 -0.35 91.95243201169264 32.4055910651571 29.430789575621883 5 3 4
319 107 1 0.7 90.80209419621463 32.48252520305837 29.558867866940222 5 3 4
20 7 2 -0.35 79.05732643592502 24.10117353955365 33.55462826195631 -5 0 4
1274 425 2 -0.35 90.24229232824513 19.72942489193474 30.895683292873404 1 4 -3
21 7 2 -0.35 81.35518748265999 24.413164352947568 33.48465439359961 -5 0 4
19 7 1 0.7 80.2062569592925 24.25716894625061 33.51964132777796 -5 0 4
1262 421 2 -0.35 89.63554285781811 25.761695275875446 20.660413947316748 -1 2 -4
1261 421 1 0.7 90.23302957759799 25.301051252002285 19.779268838406367 -1 2 -4
1263 421 2 -0.35 90.83051629737787 24.840407228129123 18.898123729495985 -1 2 -4
415 139 1 0.7 90.43042345112596 36.57194632467788 35.12183841341542 4 1 1
416 139 2 -0.35 89.28998311866742 36.36127672566012 35.146620829575035 4 1 1
417 139 2 -0.35 91.57086378358451 36.782615923695644 35.0970559972558 4 1 1
31 11 1 0.7 81.21501874532287 26.548394881499163 35.76408702859197 0 5 -6
32 11 2 -0.35 80.23421381931065 26.314720506145882 35.19048613649942 0 5 -6
33 11 2 -0.35 82.19582367133508 26.782069256852445 36.33768792068452 0 5 -6
213 71 2 -0.35 109.10915879703737 28.298366626375927 20.150991357123225 3 0 3
211 71 1 0.7 108.14122618813072 28.055027831061565 20.742170429239998 3 0 3
199 67 1 0.7 102.37574213698952 30.222563473974503 24.449174358681475 0 3 -6
201 67 2 -0.35 103.18897229846631 29.74450200798441 23.77410848100838 0 3 -6
476 159 2 -0.35 98.23009116961772 34.655860728023534 35.010408854092056 -2 0 -1
200 67 2 -0.35 101.56251197551273 30.700624939964598 25.124240236354574 0 3 -6
212 71 2 -0.35 107.17329357922407 27.811689035747204 21.33334950135677 3 0 3
475 159 1 0.7 97.79347885604813 33.58148637442729 34.984151741251374 -2 0 -1
477 159 2 -0.35 97.35686654247853 32.50711202083106 34.957894628410685 -2 0 -1
1190 397 2 -0.35 11.809480665625278 46.126798275359 22.29719154802588 6 -1 -2
1189 397 1 0.7 12.35894034165152 47.14840607737938 22.300592029115396 6 -1 -2
1191 397 2 -0.35 12.90840001767776 48.170013879399754 22.303992510204914 6 -1 -2
133 45 1 0.7 18.44469102121111 57.72414559024377 19.92142189415108 -3 -6 -1
1253 418 2 -0.35 15.102425007291318 57.50893914911341 30.80660498879262 1 5 0
1252 418 1 0.7 14.793710262559777 56.96377873160892 31.78287100047852 1 5 0