LAMMPS (29 Aug 2024 - Update 1)
  using 1 OpenMP thread(s) per MPI task
package gpu 1 gpuID 0
# GCMC for CO2 molecular fluid, rigid/small/nvt dynamics
# Rigid CO2 TraPPE model
# [Potoff and J.I. Siepmann, Vapor-liquid equilibria of
# mixtures containing alkanes, carbon dioxide and
# nitrogen AIChE J., 47,1676-1682 (2001)].

# global model settings

units           real
atom_style      full
boundary        p p p
pair_style      lj/cut/coul/long  12
pair_modify     mix arithmetic shift yes
kspace_style    pppm 1.0e-4
bond_style      harmonic
angle_style     harmonic
neigh_modify    one 4000

# box, start molecules on simple cubic lattice
region          mbox block 0 ${lbox} 0 ${lbox} 0 ${lbox} units box
region          mbox block 0 115 0 ${lbox} 0 ${lbox} units box
region          mbox block 0 115 0 115 0 ${lbox} units box
region          mbox block 0 115 0 115 0 115 units box
create_box      2 mbox                                       bond/types 1                                angle/types 1                               extra/bond/per/atom 2                       extra/angle/per/atom 1                      extra/special/per/atom 2
Created orthogonal box = (0 0 0) to (115 115 115)
  1 by 1 by 1 MPI processor grid
molecule        co2mol ../CO2.txt
Read molecule template co2mol:
# CO2 molecule file. TraPPE model.
  1 molecules
  0 fragments
  3 atoms with max type 2
  2 bonds with max type 1
  1 angles with max type 1
  0 dihedrals with max type 0
  0 impropers with max type 0
create_atoms   	0 random ${nmols} 34578 mbox mol co2mol 464563 overlap 1.2
create_atoms   	0 random 500 34578 mbox mol co2mol 464563 overlap 1.2
Created 1500 atoms
  using lattice units in orthogonal box = (0 0 0) to (115 115 115)
  create_atoms CPU = 0.014 seconds

# rigid CO2 TraPPE model

pair_coeff      1   1  0.053649   2.800
pair_coeff      2   2  0.156973   3.050
bond_coeff      1       0       1.16
angle_coeff     1       0       180

# masses

mass 1 12.0107
mass 2 15.9994

write_data init_conf.data  pair ij
System init for write_data ...
PPPM initialization ...
  using 12-bit tables for long-range coulomb (src/kspace.cpp:342)
  G vector (1/distance) = 0.1676322
  grid = 25 25 25
  stencil order = 5
  estimated absolute RMS force accuracy = 0.036473453
  estimated relative force accuracy = 0.00010983872
  using double precision FFTW3
  3d grid and FFT values/proc = 27000 15625
Generated 1 of 1 mixed pair_coeff terms from arithmetic mixing rule

# MD settings

group           co2 type 1 2
1500 atoms in group co2
velocity       	all create 300 54654
timestep        0.25

# rigid constraints with thermostat
fix             myrigidnvt co2 rigid/nvt molecule temp 300 300 $(100*dt)
fix             myrigidnvt co2 rigid/nvt molecule temp 300 300 25
  500 rigid bodies with 1500 atoms

thermo 1000
thermo_style custom step temp density press ke pe etotal


variable    mvol equal vol
variable    mden equal density
variable	mtmp equal temp
variable    mpre equal press

fix mydat all ave/time 1 4000 4000 v_mtmp v_mden v_mpre file statistics.dat ## every 1ps

run 4000000 ## 1ns

CITE-CITE-CITE-CITE-CITE-CITE-CITE-CITE-CITE-CITE-CITE-CITE-CITE

Your simulation uses code contributions which should be cited:

- GPU package (short-range, long-range and three-body potentials): doi:10.1016/j.cpc.2010.12.021, doi:10.1016/j.cpc.2011.10.012, doi:10.1016/j.cpc.2013.08.002, doi:10.1016/j.commatsci.2014.10.068, doi:10.1016/j.cpc.2016.10.020, doi:10.3233/APC200086

@Article{Brown11,
 author = {W. M. Brown and P. Wang and S. J. Plimpton and A. N. Tharrington},
 title = {Implementing Molecular Dynamics on Hybrid High Performance Computers---Short Range Forces},
 journal = {Comput.\ Phys.\ Commun.},
 year =    2011,
 volume =  182,
 pages =   {898--911},
 doi =     {10.1016/j.cpc.2010.12.021}
}

@Article{Brown12,
 author = {W. M. Brown and A. Kohlmeyer and S. J. Plimpton and A. N. Tharrington},
 title = {Implementing Molecular Dynamics on Hybrid High Performance Computers - Particle-Particle Particle-Mesh},
 journal = {Comput.\ Phys.\ Commun.},
 year =    2012,
 volume =  183,
 doi =     {10.1016/j.cpc.2011.10.012},
 pages =   {449--459}
}

@Article{Brown13,
 author = {W. M. Brown and Y. Masako},
 title = {Implementing Molecular Dynamics on Hybrid High Performance Computers---Three-Body Potentials},
 journal = {Comput.\ Phys.\ Commun.},
 year =    2013,
 volume =  184,
 pages =   {2785--2793},
 doi =     {10.1016/j.cpc.2013.08.002},
}

@Article{Trung15,
 author = {T. D. Nguyen and S. J. Plimpton},
 title = {Accelerating Dissipative Particle Dynamics Simulations for Soft Matter Systems},
 journal = {Comput.\ Mater.\ Sci.},
 year =    2015,
 doi =     {10.1016/j.commatsci.2014.10.068},
 volume =  100,
 pages =   {173--180}
}

@Article{Trung17,
 author = {T. D. Nguyen},
 title = {{GPU}-Accelerated {T}ersoff Potentials for Massively Parallel
    Molecular Dynamics Simulations},
 journal = {Comput.\ Phys.\ Commun.},
 year =    2017,
 doi =     {10.1016/j.cpc.2016.10.020},
 volume =  212,
 pages =   {113--122}
}

@inproceedings{Nikolskiy19,
 author = {V. Nikolskiy and V. Stegailov},
 title = {{GPU} Acceleration of Four-Site Water Models in {LAMMPS}},
 booktitle = {Proceedings of the International Conference on Parallel
    Computing (ParCo 2019), Prague, Czech Republic},
 doi =     {10.3233/APC200086},
 year =    2019
}

CITE-CITE-CITE-CITE-CITE-CITE-CITE-CITE-CITE-CITE-CITE-CITE-CITE

PPPM initialization ...
  using 12-bit tables for long-range coulomb (src/kspace.cpp:342)
  G vector (1/distance) = 0.1676322
  grid = 25 25 25
  stencil order = 5
  estimated absolute RMS force accuracy = 0.036473453
  estimated relative force accuracy = 0.00010983872
  using double precision FFTW3
  3d grid and FFT values/proc = 27000 15625
Generated 1 of 1 mixed pair_coeff terms from arithmetic mixing rule
Per MPI rank memory allocation (min/avg/max) = 9.84 | 9.84 | 9.84 Mbytes
   Step          Temp         Density         Press          KinEng         PotEng         TotEng    
         0   305.66621      0.024025475   -852.23604      758.3663       1694.4555      2452.8218    
      1000   308.77072      0.024025475    6.0191273      766.06867     -29.451416      736.61725    
      2000   280.05211      0.024025475    10.613612      694.81701     -34.580669      660.23634    
      3000   302.29681      0.024025475    11.752374      750.00672     -40.37565       709.63107    
      4000   312.90502      0.024025475    13.822818      776.32599     -46.031935      730.29405    
      5000   279.00392      0.024025475    11.930508      692.21642     -43.402967      648.81345    
      6000   301.80385      0.024025475    13.471896      748.78367     -50.244477      698.5392     
      7000   292.24216      0.024025475    13.48938       725.06085     -47.166612      677.89424    
      8000   306.92985      0.024025475    22.76289       761.50143     -53.271101      708.23033    
      9000   283.89467      0.024025475    13.581741      704.35049     -55.16561       649.18488    
     10000   289.86678      0.024025475    12.273384      719.16748     -62.139782      657.0277     
     11000   302.97981      0.024025475    7.6965241      751.70127     -60.003735      691.69754    
     12000   299.58872      0.024025475    9.8498872      743.28788     -61.833456      681.45442    
     13000   310.46613      0.024025475    20.777968      770.27503     -58.794719      711.48031    
     14000   299.86454      0.024025475    14.440521      743.97218     -55.812307      688.15987    
     15000   296.44892      0.024025475    0.82817034     735.49795     -55.754014      679.74394    
     16000   303.30385      0.024025475    7.510219       752.5052      -56.716352      695.78885    
     17000   294.08997      0.024025475    15.164799      729.64531     -55.615816      674.0295     
     18000   300.44377      0.024025475    17.431419      745.40927     -62.579063      682.83021    
     19000   303.53744      0.024025475    24.308635      753.08476     -63.33182       689.75294    
     20000   287.57731      0.024025475    14.581853      713.48725     -58.496958      654.99029    
     21000   286.15243      0.024025475    6.8045365      709.95206     -69.874886      640.07717    
     22000   306.52393      0.024025475    11.772577      760.49431     -72.358941      688.13537    
     23000   308.31679      0.024025475    14.198412      764.94246     -75.164141      689.77832    
     24000   283.5725       0.024025475    11.207561      703.5512      -72.850149      630.70105    
     25000   308.8628       0.024025475    13.088334      766.29713     -69.047456      697.24967    
     26000   317.55051      0.024025475    16.528119      787.85156     -67.278972      720.57259    
     27000   307.83281      0.024025475    19.085999      763.74169     -66.05907       697.68262    
     28000   289.51253      0.024025475    12.075985      718.28856     -66.197463      652.0911     
     29000   308.60039      0.024025475    25.028182      765.64606     -69.006981      696.63908    
     30000   296.11234      0.024025475    15.295115      734.66289     -64.86625       669.79664    
     31000   304.96122      0.024025475    10.283188      756.6172      -65.175584      691.44161    
     32000   296.18953      0.024025475    14.95165       734.85439     -68.336989      666.5174     
     33000   304.31072      0.024025475    18.30264       755.00329     -66.209249      688.79404    
     34000   295.07283      0.024025475    9.1382689      732.08383     -66.572762      665.51107    
     35000   297.56309      0.024025475   -1.1257789      738.26223     -68.853627      669.4086     
     36000   306.0578       0.024025475    2.3861539      759.33784     -70.358929      688.97891    
     37000   304.30581      0.024025475    12.338288      754.99111     -66.361807      688.6293     
     38000   301.43491      0.024025475    14.62474       747.86832     -62.427323      685.441      
     39000   295.95883      0.024025475    13.110815      734.28201     -73.78859       660.49342    
     40000   303.11316      0.024025475    12.054287      752.03211     -72.82086       679.21125    
     41000   302.53226      0.024025475    22.847714      750.59087     -76.93434       673.65653    
     42000   291.29833      0.024025475    5.9248616      722.71918     -68.738066      653.98112    
     43000   297.0308       0.024025475    9.0171334      736.9416      -73.397974      663.54362    
     44000   296.68043      0.024025475    17.327039      736.07232     -72.911439      663.16088    
     45000   305.2943       0.024025475    8.1225885      757.44358     -74.890847      682.55273    
     46000   309.83223      0.024025475    13.284468      768.70232     -78.425012      690.2773     
     47000   298.56963      0.024025475    11.005044      740.75947     -79.722064      661.03741    
     48000   276.94177      0.024025475    10.682956      687.10017     -78.473161      608.62701    
     49000   304.04871      0.024025475    9.7922841      754.35323     -78.147655      676.20558    
     50000   310.92443      0.024025475    4.9588815      771.41209     -80.148996      691.2631     
     51000   298.65006      0.024025475    26.224051      740.95903     -80.396192      660.56284    
     52000   287.87001      0.024025475    13.066811      714.21344     -79.42647       634.78697    
     53000   282.18651      0.024025475    13.940312      700.11252     -74.650238      625.46228    
     54000   307.25427      0.024025475    7.9407549      762.30632     -77.395904      684.91042    
     55000   301.25029      0.024025475    12.659632      747.41028     -79.733405      667.67688    
     56000   301.52267      0.024025475    12.597243      748.08607     -83.588493      664.49757    
     57000   290.99265      0.024025475    13.479761      721.96078     -85.336808      636.62397    
     58000   292.08735      0.024025475    10.005603      724.67676     -89.045581      635.63118    
     59000   301.36931      0.024025475    13.205487      747.70556     -88.405188      659.30038    
     60000   311.10909      0.024025475    13.535359      771.87023     -82.221974      689.64826    
     61000   304.9538       0.024025475    12.710668      756.59879     -84.049435      672.54936    
     62000   285.60263      0.024025475    9.0788489      708.58799     -84.959472      623.62851    
     63000   316.05822      0.024025475    12.192571      784.14917     -80.904698      703.24447    
     64000   299.71017      0.024025475    14.178119      743.58918     -79.478556      664.11063    
     65000   304.18479      0.024025475    17.726487      754.69085     -79.443507      675.24734    
     66000   284.72319      0.024025475    12.816816      706.40607     -74.531761      631.87431    
     67000   310.10254      0.024025475    10.422655      769.37295     -80.990275      688.38267    
     68000   325.8035       0.024025475    12.303315      808.32745     -74.056125      734.27133    
     69000   293.92256      0.024025475    13.006622      729.22998     -77.265887      651.96409    
     70000   295.24668      0.024025475    13.087833      732.51515     -82.973586      649.54157    
     71000   295.85608      0.024025475    5.7510379      734.0271      -86.982589      647.04451    
     72000   305.40465      0.024025475    7.3928611      757.71736     -79.487331      678.23003    
     73000   298.89039      0.024025475    11.859114      741.55529     -84.336161      657.21913    
     74000   294.23512      0.024025475    15.163215      730.00544     -84.245174      645.76027    
     75000   292.97924      0.024025475    12.458288      726.88957     -77.07739       649.81218    
     76000   309.4124       0.024025475    0.49100826     767.66068     -79.097304      688.56338    
     77000   306.30596      0.024025475    20.785692      759.95353     -81.185108      678.76842    
     78000   296.95328      0.024025475    22.698074      736.74928     -75.770279      660.979      
     79000   288.4476       0.024025475    15.965392      715.64644     -73.24446       642.40198    
     80000   313.81243      0.024025475    7.2363607      778.57729     -72.987205      705.59008    
     81000   304.69166      0.024025475    13.677259      755.94841     -70.148996      685.79941    
     82000   295.98177      0.024025475    15.925463      734.33894     -72.475614      661.86332    
     83000   293.64018      0.024025475    18.35974       728.52938     -72.546094      655.98328    
     84000   305.03941      0.024025475    9.4649915      756.81119     -74.020504      682.79068    
     85000   296.21723      0.024025475    12.03102       734.92312     -65.947635      668.97548    
     86000   297.30964      0.024025475    16.920209      737.63342     -68.284526      669.34889    
     87000   305.22025      0.024025475    9.9019551      757.25985     -66.954205      690.30565    
     88000   301.90346      0.024025475    10.072678      749.03081     -71.662707      677.3681     
     89000   301.33947      0.024025475    8.7487067      747.63153     -70.286598      677.34493    
     90000   322.97624      0.024025475    11.846738      801.31296     -72.364193      728.94876    
     91000   295.02         0.024025475    16.514723      731.95274     -55.302582      676.65016    
     92000   305.05664      0.024025475    11.944317      756.85393     -67.633296      689.22063    
     93000   301.71772      0.024025475    18.170381      748.56997     -70.00071       678.56926    
     94000   293.58389      0.024025475    12.866733      728.38972     -73.489594      654.90012    
     95000   298.23895      0.024025475    3.9173313      739.93905     -76.393149      663.54591    
     96000   319.28269      0.024025475    16.602535      792.14916     -77.958601      714.19055    
     97000   295.02074      0.024025475    17.961172      731.95459     -79.997204      651.95739    
     98000   294.38811      0.024025475    10.372879      730.38502     -75.906507      654.47851    
     99000   306.66779      0.024025475    10.474333      760.85124     -79.57814       681.2731     
    100000   307.97391      0.024025475    13.110707      764.09176     -73.256182      690.83557    
    101000   292.23281      0.024025475    9.1914343      725.03765     -72.395864      652.64179    
    102000   288.66153      0.024025475    13.67716       716.17722     -76.07997       640.09725    
    103000   311.35292      0.024025475    17.051582      772.47517     -73.220521      699.25465    
    104000   306.49901      0.024025475    11.868042      760.4325      -72.304744      688.12776    
    105000   299.30575      0.024025475    12.761065      742.58582     -77.338801      665.24702    
    106000   289.84921      0.024025475    12.072125      719.12387     -73.607481      645.51639    
    107000   302.45824      0.024025475    13.034031      750.40724     -72.203779      678.20346    
    108000   314.0147       0.024025475    14.091692      779.07912     -77.030333      702.04878    
    109000   302.36264      0.024025475    12.715793      750.17004     -72.63206       677.53798    
    110000   285.45276      0.024025475    10.106343      708.21616     -74.829307      633.38685    
    111000   294.25122      0.024025475    20.772523      730.04539     -72.722342      657.32305    
    112000   305.022        0.024025475    11.558057      756.768       -70.525325      686.24267    
    113000   305.91159      0.024025475    11.866323      758.97509     -71.176657      687.79844    
    114000   291.94747      0.024025475    11.291158      724.32972     -70.392264      653.93745    
    115000   284.31215      0.024025475    10.898902      705.38628     -73.162125      632.22415    
    116000   303.88016      0.024025475    8.3923878      753.93504     -73.773855      680.16119    
    117000   306.04021      0.024025475    12.809568      759.2942      -82.018918      677.27528    
    118000   292.75972      0.024025475    12.250499      726.34493     -77.288434      649.05649    
    119000   283.97869      0.024025475    14.583517      704.55897     -72.290833      632.26814    
    120000   306.394        0.024025475    15.707941      760.17196     -68.098277      692.07368    
    121000   311.05421      0.024025475    13.726074      771.73407     -70.505568      701.2285     
    122000   308.74491      0.024025475    11.67023       766.00463     -74.447137      691.55749    
    123000   286.76304      0.024025475    10.162497      711.467       -71.553649      639.91335    
    124000   286.78389      0.024025475    12.417798      711.51872     -64.338672      647.18005    
    125000   309.6911       0.024025475    16.743654      768.35217     -67.553028      700.79914    
    126000   297.23215      0.024025475    8.109695       737.44115     -70.182884      667.25826    
    127000   298.54685      0.024025475    26.496553      740.70296     -65.038568      675.66439    
    128000   304.95478      0.024025475    8.7106232      756.60122     -68.374414      688.22681    
    129000   305.05792      0.024025475    1.7500248      756.8571      -63.784094      693.07301    
    130000   304.03093      0.024025475    11.994262      754.30911     -63.524915      690.78419    
    131000   299.96947      0.024025475    27.933251      744.23252     -61.549545      682.68297    
    132000   304.71337      0.024025475    20.465827      756.00227     -60.172323      695.82995    
    133000   305.88978      0.024025475    0.26135214     758.92097     -58.580367      700.3406     
    134000   293.95925      0.024025475    5.6173687      729.321       -57.951976      671.36902    
    135000   293.97928      0.024025475    19.913567      729.37069     -56.399546      672.97114    
    136000   316.73887      0.024025475    10.437334      785.83786     -59.472692      726.36517    
    137000   315.24811      0.024025475    4.0675256      782.13925     -64.318272      717.82098    
    138000   294.63919      0.024025475    12.550115      731.00794     -64.098035      666.90991    
    139000   285.02949      0.024025475    18.780235      707.16603     -58.338032      648.828      
    140000   309.49436      0.024025475    14.832329      767.86403     -59.112907      708.75113    
    141000   309.00194      0.024025475    4.7623031      766.64234     -51.148958      715.49338    
    142000   292.11071      0.024025475    11.220829      724.73473     -60.296378      664.43835    
    143000   287.94308      0.024025475    12.918225      714.39472     -72.68432       641.7104     
    144000   303.04493      0.024025475    14.318775      751.86282     -74.483744      677.37907    
    145000   304.5417       0.024025475    5.6139261      755.57636     -63.800442      691.77592    
    146000   288.73245      0.024025475    15.858571      716.35318     -68.621426      647.73175    
    147000   298.27832      0.024025475    18.585437      740.03674     -64.492043      675.5447     
    148000   300.54933      0.024025475    11.133215      745.67118     -68.671236      676.99995    
    149000   313.87208      0.024025475    5.1305204      778.72529     -67.502526      711.22276    
    150000   290.08973      0.024025475    11.85097       719.72061     -65.250274      654.47034    
    151000   295.01441      0.024025475    15.647927      731.93889     -67.453106      664.48579    
    152000   306.08575      0.024025475    21.176689      759.40718     -62.43          696.97718    
    153000   307.94676      0.024025475    13.800667      764.0244      -60.437532      703.58687    
    154000   293.81704      0.024025475    10.240414      728.96818     -57.933459      671.03472    
    155000   292.03054      0.024025475    13.247856      724.53583     -57.350269      667.18556    
    156000   316.735        0.024025475    13.289532      785.82826     -60.970512      724.85775    
    157000   303.06173      0.024025475    10.278232      751.90451     -65.104867      686.79964    
    158000   291.12199      0.024025475    11.57843       722.28169     -66.605287      655.6764     
    159000   291.27639      0.024025475    12.009835      722.66474     -68.712487      653.95226    
    160000   306.67519      0.024025475    11.804633      760.8696      -66.737389      694.13221    
    161000   297.1006       0.024025475    17.071812      737.11479     -64.660662      672.45413    
    162000   305.45291      0.024025475    18.63986       757.83709     -64.060637      693.77646    
    163000   311.57913      0.024025475    9.5689462      773.03641     -68.734603      704.3018     
    164000   297.13282      0.024025475    4.5071488      737.19472     -70.403396      666.79133    
    165000   300.5069       0.024025475    21.744112      745.5659      -71.144878      674.42102    
    166000   301.13576      0.024025475    11.644806      747.12612     -71.463185      675.66294    
    167000   305.03783      0.024025475    9.8108096      756.80726     -73.625025      683.18223    
    168000   290.55002      0.024025475    10.87702       720.8626      -67.216567      653.64603    
    169000   285.95181      0.024025475    13.195375      709.45432     -58.532036      650.92228    
    170000   315.80884      0.024025475    16.304768      783.53043     -64.292315      719.23812    
    171000   295.05993      0.024025475    10.094595      732.05181     -68.999934      663.05188    
    172000   295.68496      0.024025475    12.531421      733.60255     -65.544869      668.05768    
    173000   304.10072      0.024025475    11.562861      754.48227     -64.504724      689.97754    
    174000   314.64453      0.024025475    13.827526      780.64176     -65.21572       715.42604    
    175000   297.16182      0.024025475    11.939757      737.26667     -64.718209      672.54846    
    176000   292.69119      0.024025475    9.169276       726.1749      -70.987925      655.18697    
    177000   316.07334      0.024025475    13.999084      784.18667     -68.341499      715.84518    
    178000   298.87725      0.024025475    11.998462      741.5227      -69.014821      672.50788    
    179000   286.08734      0.024025475    12.526975      709.79057     -68.975066      640.8155     
    180000   300.24068      0.024025475    12.85833       744.9054      -66.395996      678.5094     
    181000   306.80002      0.024025475    12.940014      761.17931     -67.613785      693.56553    
    182000   300.12996      0.024025475    7.6170326      744.63071     -62.582309      682.0484     
    183000   286.87985      0.024025475    10.432972      711.75681     -66.707594      645.04922    
    184000   296.83542      0.024025475    12.84829       736.45686     -66.13839       670.31847    
    185000   295.16439      0.024025475    11.921992      732.31098     -65.66106       666.64992    
    186000   300.31082      0.024025475    12.682261      745.07942     -60.347014      684.7324     
    187000   302.62586      0.024025475    12.197612      750.82311     -65.753682      685.06943    
    188000   302.00766      0.024025475    13.080823      749.28933     -59.609541      689.67979    
    189000   296.93647      0.024025475    18.216302      736.70756     -62.71382       673.99374    
    190000   293.24158      0.024025475    13.080398      727.54044     -58.811485      668.72896    
    191000   302.63181      0.024025475    11.855076      750.83786     -61.162119      689.67574    
    192000   316.65744      0.024025475    12.850999      785.63584     -56.209832      729.42601    
    193000   301.70682      0.024025475    14.048513      748.54293     -64.44686       684.09607    
    194000   288.14457      0.024025475    8.8272187      714.89462     -65.913661      648.98096    
    195000   292.40094      0.024025475    5.9933277      725.45478     -61.697686      663.7571     
    196000   318.18092      0.024025475    13.036232      789.41563     -58.630482      730.78515    
    197000   306.72569      0.024025475    21.520469      760.99489     -57.372979      703.62191    
    198000   285.32025      0.024025475    12.089189      707.88741     -55.4598        652.42761    
    199000   300.40043      0.024025475    6.3003834      745.30175     -53.890343      691.4114     
    200000   296.13797      0.024025475    10.996948      734.72645     -58.685006      676.04145    
    201000   308.27478      0.024025475    8.3237324      764.83823     -56.967489      707.87074    
    202000   312.23546      0.024025475    15.294085      774.66479     -56.762148      717.90264    
    203000   294.65651      0.024025475    16.944826      731.05092     -53.542088      677.50883    
    204000   286.27005      0.024025475    1.2944145      710.24388     -51.348127      658.89575    
    205000   319.18362      0.024025475    7.7036837      791.90335     -53.717507      738.18585    
    206000   316.28001      0.024025475    25.724588      784.69942     -55.910361      728.78906    
    207000   284.38251      0.024025475    17.41738       705.56084     -46.658268      658.90257    
    208000   301.59632      0.024025475    12.736681      748.26877     -46.95793       701.31084    
    209000   298.10283      0.024025475    7.9071821      739.60133     -48.443018      691.15832    
    210000   310.35086      0.024025475    11.813895      769.98903     -54.776589      715.21244    
    211000   308.07193      0.024025475    17.921093      764.33495     -50.980211      713.35474    
    212000   300.37778      0.024025475    14.450303      745.24554     -50.480859      694.76468    
    213000   289.85326      0.024025475    12.879291      719.13393     -51.363797      667.77013    
    214000   294.0127       0.024025475   -2.342934       729.4536      -50.992475      678.46113    
    215000   312.86106      0.024025475    16.36398       776.21691     -53.204304      723.0126     
    216000   301.64547      0.024025475    21.572141      748.39072     -53.003644      695.38707    
    217000   288.29409      0.024025475    10.949465      715.26559     -48.420276      666.84531    
    218000   299.35942      0.024025475    7.8925771      742.71898     -51.551668      691.16731    
    219000   313.22201      0.024025475    24.75307       777.11245     -50.00198       727.11047    
    220000   302.87067      0.024025475    14.992166      751.43049     -50.532741      700.89774    
    221000   304.52454      0.024025475    10.461613      755.53377     -52.787782      702.74598    
    222000   300.08083      0.024025475   -0.27649733     744.5088      -47.847312      696.66149    
    223000   291.3858       0.024025475    19.083556      722.9362      -45.910051      677.02615    
    224000   290.04833      0.024025475    10.332673      719.6179      -47.482111      672.13579    
    225000   321.2397       0.024025475    3.1637704      797.00454     -45.812822      751.19172    
    226000   312.62953      0.024025475    23.264227      775.64249     -47.8382        727.80429    
    227000   292.61825      0.024025475    16.063446      725.99394     -44.922893      681.07104    
    228000   298.39691      0.024025475    7.8578187      740.33095     -44.207319      696.12363    
    229000   307.83643      0.024025475    11.999804      763.75066     -50.773116      712.97754    
    230000   310.13091      0.024025475    15.774245      769.44334     -53.187914      716.25542    
    231000   287.65019      0.024025475    11.45523       713.66805     -54.958424      658.70963    
    232000   305.54683      0.024025475    10.618668      758.0701      -54.924524      703.14558    
    233000   309.59764      0.024025475    17.056116      768.12028     -52.711006      715.40927    
    234000   298.98408      0.024025475    10.232749      741.78775     -48.099288      693.68846    
    235000   306.51326      0.024025475    14.503115      760.46784     -50.866476      709.60137    
    236000   288.72565      0.024025475    13.397747      716.3363      -51.686609      664.64969    
    237000   302.39665      0.024025475    14.736767      750.25442     -50.044297      700.21012    
    238000   300.99856      0.024025475    12.558344      746.78572     -53.020098      693.76562    
    239000   300.37117      0.024025475    11.207024      745.22915     -52.070056      693.1591     
    240000   297.3317       0.024025475    12.21893       737.68815     -50.600318      687.08783    
    241000   313.73574      0.024025475    12.188434      778.38701     -54.199616      724.1874     
    242000   287.33827      0.024025475    10.822278      712.89416     -53.995498      658.89866    
    243000   291.94834      0.024025475    10.902871      724.33188     -51.928508      672.40337    
    244000   310.34617      0.024025475    14.627718      769.97741     -58.133786      711.84363    
    245000   301.99612      0.024025475    17.251068      749.2607      -55.066585      694.19412    
    246000   302.15799      0.024025475    11.124925      749.6623      -49.781002      699.8813     
    247000   304.42512      0.024025475    12.434068      755.28712     -51.913488      703.37363    
    248000   294.26924      0.024025475    12.697528      730.09009     -51.200341      678.88975    
    249000   292.85769      0.024025475    10.603221      726.588       -48.363201      678.2248     
    250000   310.22298      0.024025475    11.476835      769.67178     -50.231287      719.44049    
    251000   294.7373       0.024025475    12.98008       731.25137     -51.134002      680.11737    
    252000   283.22483      0.024025475    12.145427      702.68861     -53.020156      649.66846    
    253000   311.42701      0.024025475    20.552212      772.65901     -49.809126      722.84988    
    254000   304.92264      0.024025475    10.034582      756.52148     -52.190094      704.33138    
    255000   290.77157      0.024025475    11.996552      721.41229     -53.830816      667.58147    
    256000   295.39111      0.024025475    13.972258      732.87349     -52.578026      680.29546    
    257000   307.91248      0.024025475    13.773322      763.93935     -51.809306      712.13004    
    258000   314.60905      0.024025475    13.803129      780.55372     -44.913812      735.6399     
    259000   292.53871      0.024025475    14.219275      725.79661     -51.321517      674.47509    
    260000   293.19145      0.024025475    12.332732      727.41607     -52.32986       675.08621    
    261000   301.30426      0.024025475    14.31633       747.54416     -47.605848      699.93831    
    262000   290.15809      0.024025475    12.705873      719.89021     -52.489452      667.40076    
    263000   308.58206      0.024025475    10.311177      765.60061     -49.987097      715.61351    
    264000   310.02298      0.024025475    16.828399      769.17556     -44.808924      724.36664    
    265000   295.48321      0.024025475    13.747848      733.10199     -47.088684      686.01331    
    266000   291.82655      0.024025475    6.5430125      724.02972     -46.787215      677.24251    
    267000   312.42712      0.024025475    15.68067       775.1403      -51.475796      723.6645     
    268000   289.29422      0.024025475    16.288858      717.74695     -48.434823      669.31212    
    269000   292.32908      0.024025475    12.707214      725.2765      -47.250436      678.02607    
    270000   314.13172      0.024025475    6.8745436      779.36945     -49.756254      729.6132     
    271000   306.48807      0.024025475    14.253308      760.40535     -46.033713      714.37163    
    272000   293.19646      0.024025475    12.174682      727.4285      -46.729683      680.69882    
    273000   298.44505      0.024025475    13.106715      740.45039     -40.941289      699.50911    
    274000   309.01028      0.024025475    15.169652      766.66303     -37.921825      728.7412     
    275000   306.6946       0.024025475    13.239958      760.91776     -41.004731      719.91303    
    276000   310.75366      0.024025475    8.5775056      770.98839     -37.630718      733.35767    
    277000   292.88747      0.024025475    11.501392      726.66189     -46.675271      679.98662    
    278000   309.64073      0.024025475    19.653653      768.22718     -48.355597      719.87158    
    279000   302.21843      0.024025475    10.928166      749.81226     -51.551436      698.26082    
    280000   301.21619      0.024025475    4.6245323      747.32566     -49.265823      698.05984    
    281000   299.84622      0.024025475    15.457831      743.92673     -49.821329      694.1054     
    282000   316.02623      0.024025475    17.896272      784.0698      -46.937994      737.1318     
    283000   296.13335      0.024025475    8.7093323      734.715       -47.223357      687.49164    
    284000   294.69315      0.024025475   -0.036339216    731.14182     -44.686556      686.45527    
    285000   300.77147      0.024025475    20.789018      746.2223      -43.896754      702.32555    
    286000   310.09337      0.024025475    30.142857      769.3502      -40.719866      728.63033    
    287000   302.68947      0.024025475    23.792113      750.98091     -39.334258      711.64665    
    288000   309.18995      0.024025475    7.7720099      767.10878     -44.468052      722.64073    
    289000   301.20656      0.024025475    7.2273236      747.30178     -45.913947      701.38783    
    290000   299.06472      0.024025475    32.845648      741.9878      -47.388235      694.59957    
    291000   307.78088      0.024025475    5.0202864      763.61286     -60.362164      703.25069    
    292000   303.30138      0.024025475   -11.674636      752.49908     -52.279969      700.21911    
    293000   296.80896      0.024025475    27.632897      736.3912      -54.60567       681.78553    
    294000   317.80367      0.024025475    8.6202727      788.47967     -50.408305      738.07136    
    295000   311.14003      0.024025475    3.3780732      771.94699     -52.742574      719.20442    
    296000   279.89297      0.024025475    1.3949244      694.42217     -47.213761      647.20841    
    297000   306.11125      0.024025475    26.31325       759.47044     -48.584591      710.88585    
    298000   298.7308       0.024025475    13.8074        741.15934     -50.21754       690.9418     
    299000   291.80238      0.024025475    12.033683      723.96975     -50.948907      673.02084    
    300000   282.23642      0.024025475    4.8793341      700.23634     -47.061464      653.17487    
    301000   306.12112      0.024025475    14.47067       759.49494     -47.01973       712.47521    
    302000   303.15048      0.024025475    14.443041      752.1247      -48.512578      703.61212    
    303000   294.34286      0.024025475    6.0705604      730.27274     -48.643982      681.62876    
    304000   302.60796      0.024025475    14.152443      750.7787      -42.949962      707.82874    
    305000   300.24439      0.024025475    13.15185       744.91461     -47.322554      697.59205    
    306000   307.36779      0.024025475    13.276756      762.58796     -49.096686      713.49127    
    307000   304.34438      0.024025475    12.780773      755.0868      -50.33566       704.75114    
    308000   314.41098      0.024025475    13.591952      780.0623      -45.683866      734.37843    
    309000   307.83088      0.024025475    9.7418015      763.7369      -53.605124      710.13178    
    310000   285.37191      0.024025475    11.548621      708.01559     -47.250918      660.76467    
    311000   297.46921      0.024025475    14.511484      738.02931     -52.241983      685.78732    
    312000   309.37015      0.024025475    12.489799      767.55587     -51.097329      716.45854    
    313000   292.41969      0.024025475    10.217756      725.50131     -56.097779      669.40353    
    314000   285.65183      0.024025475    11.559259      708.71005     -52.854734      655.85532    
    315000   309.56451      0.024025475    13.948024      768.03809     -57.708549      710.32954    
    316000   296.3813       0.024025475    11.948139      735.33018     -55.944958      679.38522    
    317000   292.57208      0.024025475    8.8972802      725.8794      -57.83937       668.04003    
    318000   292.63349      0.024025475    14.48523       726.03175     -57.088156      668.9436     
    319000   291.49069      0.024025475    19.900877      723.19644     -50.87528       672.32116    
    320000   304.59364      0.024025475    14.244171      755.70523     -47.806427      707.8988     
    321000   288.29296      0.024025475    3.1072207      715.26277     -47.372378      667.89039    
    322000   296.85927      0.024025475    13.719906      736.51604     -50.884529      685.63151    
    323000   306.40019      0.024025475    14.657635      760.18731     -44.120471      716.06684    
    324000   307.41449      0.024025475    13.00102       762.70381     -43.784957      718.91886    
    325000   301.17503      0.024025475    9.7290748      747.22354     -43.304322      703.91922    
    326000   288.52396      0.024025475    9.8580418      715.8359      -44.272876      671.56302    
    327000   299.50081      0.024025475    11.317843      743.06977     -41.518323      701.55144    
    328000   304.34437      0.024025475    13.12798       755.08678     -42.61223       712.47455    
    329000   299.02535      0.024025475    14.134482      741.89014     -42.778866      699.11127    
    330000   307.98833      0.024025475    9.8046473      764.12753     -39.799542      724.32798    
    331000   305.16819      0.024025475    10.22778       757.13069     -37.556991      719.5737     
    332000   294.58324      0.024025475    12.988039      730.86913     -36.22583       694.6433     
    333000   308.70771      0.024025475    15.06229       765.91235     -33.477828      732.43452    
    334000   314.6229       0.024025475    9.2709362      780.58808     -35.015373      745.57271    
    335000   302.21039      0.024025475    12.046513      749.7923      -36.922685      712.86961    
    336000   285.70415      0.024025475    16.667784      708.83986     -33.119548      675.72032    
    337000   297.02606      0.024025475    20.434327      736.92984     -37.566396      699.36344    
    338000   308.65918      0.024025475    11.230375      765.79193     -31.199765      734.59216    
    339000   295.82642      0.024025475    0.21302518     733.95351     -33.041994      700.91151    
    340000   288.73113      0.024025475    16.411631      716.3499      -36.202506      680.14739    
    341000   302.78877      0.024025475    20.166613      751.22728     -38.499406      712.72787    
    342000   312.41856      0.024025475    5.1946765      775.11906     -36.313768      738.80529    
    343000   302.16756      0.024025475    1.8396555      749.68603     -37.478234      712.2078     
    344000   291.21562      0.024025475    12.394307      722.51397     -42.061128      680.45284    
    345000   308.12833      0.024025475    13.53888       764.47488     -38.056102      726.41878    
    346000   314.60598      0.024025475    12.021108      780.54611     -41.791408      738.7547     
    347000   305.06212      0.024025475    12.989342      756.86752     -40.900359      715.96717    
    348000   281.55572      0.024025475    11.465696      698.54749     -41.908747      656.63875    
    349000   299.06711      0.024025475    10.6078        741.99373     -39.042357      702.95137    
    350000   311.20428      0.024025475    12.744465      772.1064      -37.157366      734.94903    
    351000   288.55866      0.024025475    14.98978       715.92199     -43.857883      672.06411    
    352000   297.40345      0.024025475    11.460497      737.86616     -40.588459      697.2777     
    353000   306.86618      0.024025475    13.191849      761.34346     -40.11041       721.23305    
    354000   307.70935      0.024025475    13.082036      763.43539     -45.541298      717.89409    
    355000   306.19682      0.024025475    13.902663      759.68276     -50.371927      709.31083    
    356000   293.34881      0.024025475    14.272188      727.80649     -49.038393      678.7681     
    357000   298.19608      0.024025475    12.294872      739.83269     -48.491797      691.34089    
    358000   296.94839      0.024025475    12.128336      736.73715     -44.474542      692.26261    
    359000   296.53275      0.024025475    12.336973      735.70592     -45.23146       690.47446    
    360000   300.44845      0.024025475    11.285876      745.42089     -44.579434      700.84145    
    361000   300.63585      0.024025475    11.227629      745.88582     -45.754833      700.13099    
    362000   290.05497      0.024025475    12.461055      719.63439     -42.895869      676.73852    
    363000   296.97404      0.024025475    11.393864      736.80079     -40.850642      695.95014    
    364000   307.36064      0.024025475    13.036214      762.57022     -36.277264      726.29296    
    365000   306.00879      0.024025475    17.839921      759.21625     -39.915645      719.30061    
    366000   305.56174      0.024025475    35.687611      758.10711     -39.668106      718.439      
    367000   297.20897      0.024025475    12.645327      737.38366     -35.80694       701.57672    
    368000   303.26625      0.024025475    10.999948      752.41193     -38.928388      713.48354    
    369000   316.65867      0.024025475    12.427145      785.6389      -32.197995      753.4409     
    370000   298.24848      0.024025475    19.492946      739.96269     -28.458449      711.50424    
    371000   303.10143      0.024025475    15.672889      752.00301     -28.215102      723.7879     
    372000   298.71252      0.024025475   -6.6161081      741.11399     -27.140759      713.97323    
    373000   300.63907      0.024025475    0.31985938     745.89382     -29.507279      716.38655    
    374000   313.36997      0.024025475    16.375156      777.47952     -33.903783      743.57574    
    375000   296.58623      0.024025475    23.480793      735.8386      -32.756368      703.08223    
    376000   287.12654      0.024025475    19.465889      712.36887     -39.122126      673.24674    
    377000   301.00636      0.024025475    2.3745977      746.80508     -36.833744      709.97134    
    378000   310.74788      0.024025475    10.174464      770.97405     -40.885091      730.08896    
    379000   297.75584      0.024025475    27.569324      738.74045     -36.189223      702.55122    
    380000   280.06784      0.024025475    18.990689      694.85604     -34.274875      660.58116    
    381000   300.31778      0.024025475    10.467136      745.09669     -35.578209      709.51848    
    382000   313.9415       0.024025475    10.60582       778.8975      -38.914192      739.98331    
    383000   307.51045      0.024025475    22.527148      762.9419      -38.997865      723.94404    
    384000   279.57766      0.024025475    6.5631596      693.63987     -38.237353      655.40252    
    385000   294.69672      0.024025475    8.1421691      731.15068     -37.029412      694.12127    
    386000   315.97378      0.024025475    6.9589588      783.93965     -36.248273      747.69138    
    387000   298.26871      0.024025475    23.44375       740.01289     -36.455597      703.55729    
    388000   287.68829      0.024025475    7.8858128      713.76257     -39.318944      674.44363    
    389000   307.53736      0.024025475    9.1886189      763.00866     -37.611205      725.39745    
    390000   304.04844      0.024025475    28.308776      754.35257     -41.082892      713.26968    
    391000   298.82011      0.024025475    16.633098      741.38094     -35.77874       705.6022     
    392000   313.04622      0.024025475    16.825615      776.67631     -39.311025      737.36529    
    393000   288.20475      0.024025475    15.784559      715.04393     -34.557269      680.48667    
    394000   291.82496      0.024025475    9.2449157      724.02577     -35.149434      688.87634    
    395000   299.51136      0.024025475    24.977675      743.09593     -29.362146      713.73378    
    396000   298.79165      0.024025475    8.7149394      741.31032     -35.821495      705.48883    
    397000   293.21313      0.024025475    7.3774012      727.46985     -27.926134      699.54371    
    398000   298.5225       0.024025475    10.105706      740.64255     -33.269992      707.37255    
    399000   300.69819      0.024025475    14.130587      746.04051     -32.90464       713.13587    
    400000   289.67813      0.024025475    15.165052      718.69942     -26.748708      691.95071    
    401000   296.99704      0.024025475    10.722505      736.85785     -32.448851      704.40899    
    402000   301.92565      0.024025475    13.54404       749.08587     -34.655127      714.43074    
    403000   304.06455      0.024025475    13.262462      754.39252     -33.007572      721.38495    
    404000   293.47677      0.024025475    11.854055      728.12397     -29.733659      698.39031    
    405000   301.38484      0.024025475    13.562648      747.74409     -33.898469      713.84562    
    406000   298.35479      0.024025475    13.126717      740.22646     -35.082304      705.14415    
    407000   301.83203      0.024025475    11.623713      748.85358     -35.885596      712.96799    
    408000   303.08462      0.024025475    5.3814218      751.9613      -37.034022      714.92728    
    409000   294.50431      0.024025475    16.960567      730.67331     -41.704897      688.96841    
    410000   299.55372      0.024025475    20.825367      743.20104     -42.555965      700.64507    
    411000   321.70098      0.024025475    17.994555      798.14901     -43.358771      754.79024    
    412000   295.384        0.024025475    10.573524      732.85584     -48.803618      684.05222    
    413000   284.72063      0.024025475   -0.087406153    706.39974     -49.109951      657.28979    
    414000   302.3026       0.024025475    25.289422      750.02109     -46.604203      703.41689    
    415000   309.1086       0.024025475    2.3979405      766.90695     -46.501428      720.40553    
    416000   301.01276      0.024025475    13.021434      746.82095     -37.090412      709.73054    
    417000   294.46353      0.024025475    21.604311      730.57214     -42.33014       688.242      
    418000   292.70642      0.024025475    8.771244       726.2127      -43.968323      682.24437    
    419000   289.26907      0.024025475    10.34833       717.68454     -45.614392      672.07015    
    420000   297.46202      0.024025475    14.121862      738.01147     -41.677368      696.3341     
    421000   296.64364      0.024025475    22.214298      735.98106     -44.876794      691.10426    
    422000   314.60467      0.024025475    9.9676072      780.54286     -51.710568      728.83229    
    423000   301.29517      0.024025475    14.153221      747.52162     -45.311208      702.21041    
    424000   288.64111      0.024025475    9.1883853      716.12654     -47.526521      668.60002    
    425000   291.8265       0.024025475    26.191299      724.0296      -49.876806      674.1528     
    426000   307.1929       0.024025475    13.373828      762.15405     -48.117555      714.0365     
    427000   305.79773      0.024025475   -3.2138738      758.6926      -49.25363       709.43897    
    428000   290.83707      0.024025475    12.549948      721.57479     -41.463574      680.11121    
    429000   300.72727      0.024025475    17.98589       746.11265     -32.334951      713.7777     
    430000   310.97137      0.024025475    13.402679      771.52855     -39.263259      732.26529    
    431000   304.59618      0.024025475    2.8818657      755.71152     -37.22579       718.48573    
    432000   293.33159      0.024025475    6.5503464      727.76376     -36.667179      691.09658    
    433000   292.57961      0.024025475    20.341339      725.89808     -35.929375      689.9687     
    434000   317.6889       0.024025475    16.557512      788.19493     -37.071161      751.12376    
    435000   299.1749       0.024025475   -7.3841979      742.26118     -37.705162      704.55602    
    436000   284.0506       0.024025475    12.886851      704.73736     -40.274513      664.46285    
    437000   295.9346       0.024025475    24.709941      734.22189     -39.723866      694.49803    
    438000   305.00436      0.024025475    22.453784      756.72422     -37.820273      718.90395    
    439000   296.05911      0.024025475    11.17579       734.53082     -37.714686      696.81613    
    440000   300.25364      0.024025475    6.9209827      744.93756     -36.927621      708.00994    
    441000   295.95503      0.024025475    7.3007491      734.2726      -37.118181      697.15442    
    442000   301.01916      0.024025475    10.24243       746.83683     -36.583558      710.25327    
    443000   294.15677      0.024025475    16.764479      729.81105     -38.304425      691.50663    
    444000   315.65474      0.024025475    6.6582828      783.14811     -35.061778      748.08633    
    445000   302.96788      0.024025475    1.3511         751.67166     -34.882146      716.78951    
    446000   290.08939      0.024025475    11.69898       719.71977     -37.769291      681.95048    
    447000   288.26334      0.024025475    11.206526      715.1893      -35.610846      679.57845    
    448000   311.93549      0.024025475    15.433127      773.92055     -41.710296      732.21025    
    449000   308.48028      0.024025475    4.2498941      765.34807     -35.116552      730.23152    
    450000   302.90771      0.024025475    7.6563549      751.52237     -38.898532      712.62384    
    451000   282.67435      0.024025475    13.743108      701.32285     -36.587574      664.73527    
    452000   301.70384      0.024025475    13.688019      748.53555     -36.495974      712.03957    
    453000   311.03168      0.024025475    13.579587      771.67816     -38.501912      733.17625    
    454000   291.89797      0.024025475    11.924055      724.20691     -37.068405      687.13851    
    455000   293.50986      0.024025475    12.682763      728.20606     -37.109434      691.09663    
    456000   323.78104      0.024025475    13.453623      803.30968     -43.638678      759.671      
    457000   301.89006      0.024025475    13.699302      748.99757     -42.819182      706.17839    
    458000   293.15302      0.024025475    12.209606      727.32073     -41.071322      686.24941    
    459000   301.45937      0.024025475    12.897062      747.929       -42.173963      705.75504    
    460000   294.69         0.024025475    13.964923      731.134       -46.083016      685.05099    
    461000   298.52126      0.024025475    13.584469      740.63948     -43.465183      697.1743     
    462000   308.59085      0.024025475    11.129945      765.62241     -49.193385      716.42903    
    463000   297.01691      0.024025475    10.204251      736.90714     -48.92028       687.98686    
    464000   300.60532      0.024025475    18.210405      745.81008     -51.150236      694.65984    
    465000   310.63277      0.024025475    12.98097       770.68847     -44.772641      725.91583    
    466000   292.35492      0.024025475    7.436444       725.34062     -45.993178      679.34744    
    467000   291.80922      0.024025475    12.657932      723.98673     -46.859775      677.12695    
    468000   306.91532      0.024025475    14.598756      761.46537     -39.01873       722.44664    
    469000   297.32416      0.024025475    14.438762      737.66944     -39.618804      698.05063    
    470000   288.61248      0.024025475    14.489102      716.05553     -40.060467      675.99506    
    471000   310.73181      0.024025475    12.402594      770.93418     -42.132119      728.80206    
    472000   307.36427      0.024025475    14.933461      762.57923     -44.666806      717.91242    
    473000   292.79339      0.024025475    12.393567      726.42848     -42.672733      683.75575    
    474000   319.22141      0.024025475    9.8816164      791.99713     -45.553903      746.44322    
    475000   287.37137      0.024025475    12.606939      712.97629     -47.975772      665.00052    
    476000   297.84379      0.024025475    12.035687      738.95864     -41.204678      697.75396    
    477000   306.00303      0.024025475    13.870296      759.20196     -42.900352      716.30161    
    478000   300.81983      0.024025475    10.120218      746.34228     -38.229337      708.11295    
    479000   304.42002      0.024025475    12.42189       755.27447     -38.218359      717.05611    
    480000   315.35075      0.024025475    11.219963      782.39389     -37.871374      744.52252    
    481000   308.24417      0.024025475    12.498065      764.76228     -35.951903      728.81038    
    482000   293.56002      0.024025475    12.961378      728.33051     -34.654072      693.67644    
    483000   306.02919      0.024025475    13.27178       759.26685     -40.030632      719.23622    
    484000   300.18758      0.024025475    13.700275      744.77366     -43.698803      701.07486    
    485000   295.90851      0.024025475    11.022463      734.15718     -43.726863      690.43032    
    486000   296.82504      0.024025475    13.939183      736.4311      -42.912662      693.51844    
    487000   299.95591      0.024025475    14.638947      744.19887     -46.722768      697.4761     
    488000   303.7532       0.024025475    14.066547      753.62007     -41.885181      711.73489    
    489000   287.08962      0.024025475    10.815567      712.27726     -42.001829      670.27543    
    490000   296.18795      0.024025475    9.1254002      734.85047     -42.172019      692.67845    
    491000   300.25127      0.024025475    13.650525      744.93168     -46.802868      698.12882    
    492000   302.81474      0.024025475    12.722602      751.29171     -42.420185      708.87152    
    493000   299.15803      0.024025475    11.350528      742.21932     -45.174298      697.04502    
    494000   292.33742      0.024025475    10.459652      725.2972      -51.254396      674.04281    
    495000   321.25697      0.024025475    12.158614      797.0474      -50.158246      746.88916    
    496000   302.85406      0.024025475    13.461926      751.38926     -46.639329      704.74993    
    497000   290.91635      0.024025475    13.252904      721.77147     -45.536641      676.23483    
    498000   299.18094      0.024025475    15.383418      742.27615     -45.034554      697.2416     
    499000   307.70231      0.024025475    13.543195      763.4179      -38.504583      724.91332    
    500000   319.40769      0.024025475    12.829844      792.45928     -43.38553       749.07375    
    501000   291.89258      0.024025475    11.959432      724.19355     -45.69066       678.50289    
    502000   297.91429      0.024025475    13.103949      739.13356     -38.3559        700.77766    
    503000   299.48624      0.024025475    10.944696      743.03362     -40.292304      702.74131    
    504000   308.59372      0.024025475    11.261657      765.62954     -38.442536      727.187      
    505000   309.80469      0.024025475    15.20939       768.63399     -39.198593      729.43539    
    506000   299.25586      0.024025475    13.463995      742.46204     -40.434284      702.02775    
    507000   298.56525      0.024025475    13.119608      740.74861     -38.318041      702.43057    
    508000   299.69432      0.024025475    12.400514      743.54987     -37.884686      705.66518    
    509000   298.23839      0.024025475    15.868192      739.93767     -43.891479      696.04619    
    510000   296.00303      0.024025475    11.256537      734.39167     -45.923262      688.4684     
    511000   307.20283      0.024025475    15.982619      762.17869     -44.473144      717.70555    
    512000   294.50727      0.024025475    28.668344      730.68067     -44.344302      686.33636    
    513000   308.64639      0.024025475    11.928553      765.76021     -43.384836      722.37537    
    514000   306.45703      0.024025475    9.6402381      760.32833     -41.441928      718.8864     
    515000   308.47801      0.024025475    8.0431378      765.34244     -36.708893      728.63355    
    516000   283.99448      0.024025475    15.297283      704.59813     -39.377839      665.2203     
    517000   305.88772      0.024025475    13.612833      758.91585     -38.66665       720.2492     
    518000   305.36653      0.024025475    8.2603204      757.62279     -45.440013      712.18277    
    519000   285.71913      0.024025475    13.020985      708.87703     -37.604717      671.27231    
    520000   295.78385      0.024025475    11.476077      733.84788     -41.906899      691.94098    
    521000   321.18059      0.024025475    4.8054648      796.8579      -38.965658      757.89224    
    522000   307.80819      0.024025475    15.271193      763.68059     -34.894419      728.78617    
    523000   295.92296      0.024025475    14.07871       734.19303     -36.648666      697.54436    
    524000   298.95924      0.024025475    14.134239      741.72611     -37.254064      704.47204    
    525000   298.9786       0.024025475    15.531563      741.77414     -38.94826       702.82588    
    526000   301.47807      0.024025475    11.500331      747.9754      -39.832375      708.14302    
    527000   305.03132      0.024025475    14.588358      756.79112     -38.44424       718.34688    
    528000   300.68749      0.024025475    15.061427      746.01395     -40.122107      705.89184    
    529000   300.68595      0.024025475    10.349044      746.01013     -41.153594      704.85653    
    530000   299.10635      0.024025475    7.6519884      742.09109     -46.369372      695.72172    
    531000   303.56647      0.024025475    13.533311      753.15679     -47.265021      705.89177    
    532000   312.99063      0.024025475    30.203107      776.53837     -45.529449      731.00892    
    533000   295.63743      0.024025475    13.697547      733.48461     -48.484392      685.00022    
    534000   284.81307      0.024025475   -5.8298562      706.62908     -43.457425      663.17166    
    535000   310.25456      0.024025475    12.715696      769.75012     -43.267877      726.48224    
    536000   307.35179      0.024025475    14.979966      762.54827     -47.543375      715.00489    
    537000   286.89689      0.024025475    22.623905      711.79908     -39.555484      672.2436     
    538000   298.64573      0.024025475    8.3417194      740.94828     -42.003414      698.94487    
    539000   300.63928      0.024025475    11.428213      745.89434     -41.937283      703.95706    
    540000   299.05906      0.024025475    9.9728521      741.97378     -42.429493      699.54428    
    541000   305.3466       0.024025475    17.51088       757.57334     -37.649183      719.92416    
    542000   289.50841      0.024025475    14.042139      718.27834     -42.085009      676.19333    
    543000   290.40471      0.024025475   -2.1811702      720.50208     -43.408326      677.09376    
    544000   311.14164      0.024025475    17.046721      771.95099     -41.238412      730.71258    
    545000   289.87261      0.024025475    14.850809      719.18194     -39.664423      679.51752    
    546000   283.77164      0.024025475    3.4955294      704.04526     -44.322249      659.72301    
    547000   311.76195      0.024025475    12.094626      773.48998     -39.062969      734.42701    
    548000   302.06988      0.024025475    16.813826      749.4437      -38.33204       711.11166    
    549000   281.9216       0.024025475    11.578326      699.45526     -37.493058      661.9622     
    550000   312.55538      0.024025475    13.761054      775.45852     -33.143251      742.31527    
    551000   310.20248      0.024025475    10.067074      769.62091     -35.721028      733.89988    
    552000   305.14428      0.024025475    12.431651      757.07137     -36.008031      721.06334    
    553000   293.22418      0.024025475    12.529771      727.49728     -43.75627       683.74101    
    554000   298.34025      0.024025475    12.819869      740.19039     -40.498006      699.69239    
    555000   306.16341      0.024025475    12.131405      759.59987     -37.08641       722.51346    
    556000   289.20134      0.024025475    11.712319      717.51649     -40.740731      676.77576    
    557000   298.69047      0.024025475    13.732665      741.05929     -40.421603      700.63769    
    558000   302.92853      0.024025475    10.626828      751.57404     -43.385507      708.18853    
    559000   308.37417      0.024025475    8.4820906      765.08481     -39.167401      725.9174     
    560000   296.52781      0.024025475    10.522743      735.69367     -43.365668      692.328      
    561000   293.29246      0.024025475    13.065133      727.66668     -45.135934      682.53074    
    562000   298.79582      0.024025475    17.483626      741.32068     -45.510842      695.80983    
    563000   311.31715      0.024025475    9.8982376      772.38643     -42.877261      729.50917    
    564000   295.9293       0.024025475    11.60802       734.20876     -36.696521      697.51224    
    565000   294.43019      0.024025475    12.383566      730.48942     -36.095364      694.39406    
    566000   323.85492      0.024025475    14.029003      803.49299     -32.016006      771.47699    
    567000   304.28056      0.024025475    13.086905      754.92845     -39.558737      715.36971    
    568000   296.34462      0.024025475    12.521523      735.23917     -41.560727      693.67845    
    569000   299.48449      0.024025475    13.981969      743.02928     -42.870115      700.15917    
    570000   307.18036      0.024025475    11.123447      762.12295     -41.072618      721.05033    
    571000   295.48446      0.024025475    12.4841        733.10509     -36.732694      696.3724     
    572000   294.55704      0.024025475    16.086601      730.80414     -32.259998      698.54414    
    573000   311.02852      0.024025475    14.858487      771.67034     -33.519858      738.15048    
    574000   309.22413      0.024025475    13.46927       767.19359     -35.980875      731.21271    
    575000   289.84289      0.024025475    13.137477      719.1082      -38.489728      680.61847    
    576000   304.00807      0.024025475    11.593356      754.25241     -38.406741      715.84567    
    577000   308.66071      0.024025475    13.364337      765.79572     -39.969938      725.82578    
    578000   298.80811      0.024025475    9.6142974      741.35115     -38.505696      702.84546    
    579000   285.44944      0.024025475    9.2616265      708.20794     -41.907806      666.30013    
    580000   296.64986      0.024025475    6.9661102      735.99648     -40.507317      695.48916    
    581000   300.94904      0.024025475    14.595034      746.66286     -43.483574      703.17928    
    582000   301.56687      0.024025475    18.982242      748.19571     -46.758854      701.43686    
    583000   301.00839      0.024025475    11.595681      746.81011     -40.984957      705.82515    
    584000   304.15359      0.024025475    9.475096       754.61345     -39.441616      715.17183    
    585000   305.20013      0.024025475    11.89379       757.20993     -42.111734      715.09819    
    586000   298.92401      0.024025475    14.925303      741.6387      -32.526919      709.11178    
    587000   305.54361      0.024025475    15.507317      758.06212     -39.138517      718.9236     
    588000   304.3421       0.024025475    10.254698      755.08115     -39.67276       715.40839    
    589000   301.01674      0.024025475    11.560861      746.83083     -45.266274      701.56455    
    590000   297.49745      0.024025475    21.47869       738.09938     -42.266084      695.83329    
    591000   300.48144      0.024025475    9.4252343      745.50273     -39.885808      705.61692    
    592000   295.17394      0.024025475    17.753091      732.33468     -40.322898      692.01178    
    593000   304.47221      0.024025475    24.178921      755.40394     -47.758225      707.64572    
    594000   299.51432      0.024025475    15.532152      743.10329     -48.23406       694.86923    
    595000   302.60148      0.024025475    13.39595       750.76262     -45.431474      705.33115    
    596000   294.99799      0.024025475    2.7730431      731.89814     -41.945576      689.95257    
    597000   287.21842      0.024025475    7.6344633      712.59682     -43.540507      669.05632    
    598000   305.81484      0.024025475    14.559552      758.73504     -48.963292      709.77175    
    599000   307.03692      0.024025475    16.620799      761.76706     -46.573858      715.1932     
    600000   295.77894      0.024025475    6.1737648      733.83569     -41.337587      692.49811    
    601000   303.61987      0.024025475    2.5221367      753.28927     -39.665755      713.62352    
    602000   293.50499      0.024025475    13.022088      728.19398     -43.44385       684.75013    
    603000   299.9977       0.024025475    15.885345      744.30257     -42.839344      701.46323    
    604000   303.54744      0.024025475    7.1523095      753.10956     -42.148027      710.96154    
    605000   292.06206      0.024025475    18.059093      724.61403     -32.909433      691.70459    
    606000   303.38163      0.024025475    24.188776      752.69819     -35.105467      717.59273    
    607000   302.4268       0.024025475    8.0493193      750.32924     -40.579896      709.74934    
    608000   312.1265       0.024025475    13.608772      774.39446     -38.644666      735.74979    
    609000   311.52335      0.024025475    9.6964999      772.89802     -38.241441      734.65657    
    610000   293.56453      0.024025475    12.655035      728.34169     -41.04566       687.29603    
    611000   293.74744      0.024025475    11.636188      728.79549     -44.727198      684.06829    
    612000   298.43388      0.024025475    11.372383      740.42269     -48.022664      692.40003    
    613000   302.75331      0.024025475    12.986921      751.13932     -38.378539      712.76078    
    614000   302.7176       0.024025475    14.045635      751.05071     -35.760598      715.29012    
    615000   277.84331      0.024025475    15.913412      689.33691     -40.874529      648.46238    
    616000   295.88105      0.024025475    11.232928      734.08904     -42.861142      691.2279     
    617000   304.21448      0.024025475    10.230647      754.76451     -45.516903      709.24761    
    618000   303.53624      0.024025475    13.54671       753.08178     -42.133487      710.94829    
    619000   298.04218      0.024025475    11.652076      739.45087     -43.034871      696.416      
    620000   301.84735      0.024025475    9.9054716      748.8916      -40.582311      708.30928    
    621000   292.74509      0.024025475    12.521974      726.30863     -39.6799        686.62873    
    622000   300.14282      0.024025475    12.969857      744.66262     -33.445309      711.21731    
    623000   301.50158      0.024025475    7.8482352      748.03374     -33.724569      714.30917    
    624000   294.87708      0.024025475    14.931207      731.59816     -36.36683       695.23133    
    625000   297.10639      0.024025475    11.638945      737.12915     -40.602377      696.52678    
    626000   311.43624      0.024025475    14.541228      772.6819      -34.976152      737.70575    
    627000   302.97564      0.024025475    11.280821      751.69091     -41.320678      710.37023    
    628000   294.18473      0.024025475    13.969924      729.88042     -40.324494      689.55593    
    629000   302.8506       0.024025475    15.463997      751.38068     -32.777499      718.60318    
    630000   294.07035      0.024025475    14.539221      729.59665     -34.757697      694.83895    
    631000   302.66195      0.024025475    10.66478       750.91265     -38.318049      712.5946     
    632000   309.98043      0.024025475    15.265718      769.07        -42.981678      726.08832    
    633000   302.05553      0.024025475    13.269422      749.40809     -40.705023      708.70307    
    634000   297.1975       0.024025475    11.469581      737.3552      -37.092708      700.26249    
    635000   304.83754      0.024025475    15.521155      756.31035     -29.687487      726.62286    
    636000   297.0785       0.024025475    10.044376      737.05994     -34.979116      702.08082    
    637000   305.06972      0.024025475    14.678578      756.88639     -29.619619      727.26677    
    638000   302.94523      0.024025475    23.35169       751.61547     -36.880462      714.73501    
    639000   298.80315      0.024025475    12.244716      741.33884     -37.633678      703.70516    
    640000   290.77651      0.024025475    9.4502247      721.42454     -35.649588      685.77495    
    641000   300.54979      0.024025475    12.185035      745.67232     -31.328664      714.34365    
    642000   298.53321      0.024025475    13.610547      740.66912     -34.611341      706.05778    
    643000   313.25237      0.024025475    13.541583      777.18776     -32.368196      744.81956    
    644000   294.14151      0.024025475    11.931342      729.7732      -36.649111      693.12409    
    645000   316.0874       0.024025475    14.080198      784.22156     -34.661833      749.55972    
    646000   306.46237      0.024025475    14.249735      760.3416      -37.473857      722.86774    
    647000   289.552        0.024025475    12.244046      718.3865      -36.156444      682.23006    
    648000   297.6398       0.024025475    12.114648      738.45256     -35.862982      702.58958    
    649000   307.30939      0.024025475    12.758999      762.44306     -33.23345       729.20961    
    650000   297.0233       0.024025475    14.653959      736.92299     -37.369487      699.5535     
    651000   302.51875      0.024025475    14.646369      750.55735     -36.03789       714.51946    
    652000   299.34191      0.024025475    12.434364      742.67553     -39.519024      703.15651    
    653000   300.85773      0.024025475    11.618122      746.43632     -30.910572      715.52575    
    654000   305.72771      0.024025475    13.82234       758.51887     -39.253484      719.26538    
    655000   298.20358      0.024025475    17.335809      739.85131     -39.222701      700.62861    
    656000   284.7021       0.024025475    12.849117      706.35375     -43.058155      663.29559    
    657000   301.69578      0.024025475    11.104211      748.51554     -39.25043       709.26511    
    658000   315.68063      0.024025475    12.360779      783.21233     -38.360431      744.8519     
    659000   302.21889      0.024025475    14.012608      749.8134      -35.50144       714.31196    
    660000   291.4673       0.024025475    12.691226      723.13839     -39.471672      683.66672    
    661000   299.43913      0.024025475    13.212501      742.91674     -41.700558      701.21618    
    662000   305.89105      0.024025475    16.472813      758.92412     -39.23594       719.68818    
    663000   294.75055      0.024025475    12.538681      731.28424     -39.603417      691.68083    
    664000   287.46589      0.024025475    12.516869      713.2108      -35.218455      677.99234    
    665000   297.82436      0.024025475    10.851628      738.91044     -34.044669      704.86577    
    666000   299.16386      0.024025475    12.712689      742.23378     -37.696099      704.53768    
    667000   307.76974      0.024025475    13.284994      763.58521     -40.363899      723.22131    
    668000   319.81014      0.024025475    16.710114      793.45777     -35.026358      758.43141    
    669000   292.06419      0.024025475    12.524847      724.61931     -35.90814       688.71117    
    670000   298.80477      0.024025475    11.583384      741.34287     -34.33345       707.00942    
    671000   310.34205      0.024025475    14.431108      769.96717     -37.054139      732.91304    
    672000   310.32567      0.024025475    28.037178      769.92655     -32.348756      737.57779    
    673000   291.78967      0.024025475    13.654465      723.93821     -32.035439      691.90277    
    674000   297.96032      0.024025475    7.3666619      739.24777     -36.322482      702.92528    
    675000   312.64595      0.024025475    8.3833754      775.68321     -39.397945      736.28527    
    676000   312.76407      0.024025475    15.650424      775.97628     -43.909663      732.06662    
    677000   294.30961      0.024025475    14.418051      730.19026     -39.72952       690.46074    
    678000   303.76623      0.024025475    11.847006      753.65239     -35.051576      718.60082    
    679000   301.57577      0.024025475    10.794301      748.2178      -41.695358      706.52244    
    680000   301.57844      0.024025475    15.125122      748.22443     -44.050575      704.17386    
    681000   296.46598      0.024025475    13.446501      735.54026     -39.296182      696.24408    
    682000   306.30389      0.024025475    13.200149      759.94839     -39.659626      720.28877    
    683000   297.02267      0.024025475    12.563736      736.92144     -43.404783      693.51666    
    684000   289.93325      0.024025475    12.317128      719.33238     -38.813068      680.51931    
    685000   319.48015      0.024025475    11.873882      792.63906     -37.178589      755.46048    
    686000   309.05904      0.024025475    12.030787      766.78401     -36.240149      730.54386    
    687000   283.70467      0.024025475    10.796974      703.8791      -33.663734      670.21537    
    688000   282.24396      0.024025475    13.363773      700.25504     -29.670955      670.58409    
    689000   302.58187      0.024025475    16.167507      750.71396     -35.256435      715.45753    
    690000   330.63173      0.024025475    15.852718      820.30644     -36.408724      783.89772    
    691000   300.02972      0.024025475    11.190832      744.382       -41.168591      703.21341    
    692000   287.45864      0.024025475    11.006561      713.1928      -37.705345      675.48746    
    693000   316.08         0.024025475    13.710243      784.2032      -31.809801      752.3934     
    694000   310.54405      0.024025475    14.322523      770.46834     -39.559817      730.90852    
    695000   298.18496      0.024025475    11.499417      739.80511     -39.65023       700.15488    
    696000   288.95436      0.024025475    15.272942      716.90374     -37.808351      679.09539    
    697000   293.65131      0.024025475    16.987716      728.55699     -38.519532      690.03746    
    698000   312.0874       0.024025475    16.384795      774.29745     -38.431599      735.86585    
    699000   291.02598      0.024025475    7.6752804      722.04349     -39.769598      682.27389    
    700000   295.62905      0.024025475    19.433968      733.46382     -39.037241      694.42658    
    701000   308.80711      0.024025475    16.073096      766.15894     -44.271422      721.88752    
    702000   293.11909      0.024025475    12.275479      727.23654     -43.722304      683.51423    
    703000   293.34053      0.024025475    10.960471      727.78595     -35.916576      691.86937    
    704000   299.84492      0.024025475    11.403067      743.92351     -39.622765      704.30075    
    705000   303.25106      0.024025475    11.121257      752.37423     -38.272164      714.10207    
    706000   299.27924      0.024025475    9.9258882      742.52004     -42.743785      699.77626    
    707000   306.65042      0.024025475    14.278917      760.80814     -36.358812      724.44933    
    708000   300.67817      0.024025475    16.513585      745.99082     -37.610673      708.38015    
    709000   298.04451      0.024025475    15.032831      739.45664     -40.876871      698.57977    
    710000   292.378        0.024025475    4.0926141      725.39789     -45.226237      680.17165    
    711000   307.68548      0.024025475    12.653409      763.37615     -41.27386       722.10229    
    712000   305.24632      0.024025475    24.084055      757.32454     -45.149751      712.17479    
    713000   289.74279      0.024025475    1.6002067      718.85984     -43.045138      675.8147     
    714000   303.73945      0.024025475    9.9265071      753.58594     -41.207715      712.37823    
    715000   303.53797      0.024025475    13.877992      753.08607     -40.598155      712.48792    
    716000   297.43398      0.024025475    17.843438      737.94189     -38.551366      699.39053    
    717000   287.57248      0.024025475    11.704121      713.47525     -48.456406      665.01884    
    718000   298.12009      0.024025475    6.7650616      739.64415     -40.338177      699.30598    
    719000   295.40806      0.024025475    5.9596594      732.91553     -38.137368      694.77817    
    720000   301.23549      0.024025475    9.5607185      747.37356     -36.141825      711.23173    
    721000   317.86765      0.024025475    19.083715      788.63841     -36.397326      752.24108    
    722000   312.58775      0.024025475    34.149324      775.53882     -36.510588      739.02824    
    723000   286.84366      0.024025475    15.67649       711.66703     -37.298485      674.36854    
    724000   300.26112      0.024025475    9.9956558      744.95612     -38.149007      706.80712    
[...]
   3823000   299.45783      0.024025475    17.95207       742.96314     -40.164971      702.79817    
   3824000   306.66425      0.024025475   -6.9443338      760.84245     -42.318943      718.52351    
   3825000   296.06054      0.024025475    12.552819      734.53436     -38.390644      696.14372    
   3826000   294.88969      0.024025475    22.821054      731.62944     -37.408564      694.22088    
   3827000   311.98058      0.024025475    14.337883      774.03242     -36.766214      737.26621    
   3828000   298.31905      0.024025475    9.2668717      740.13778     -36.679561      703.45822    
   3829000   293.2652       0.024025475    11.250824      727.59906     -36.501776      691.09728    
   3830000   294.13236      0.024025475    13.006103      729.75049     -34.310821      695.43967    
   3831000   291.13688      0.024025475    14.253798      722.31863     -37.103935      685.21469    
   3832000   314.62741      0.024025475    13.761813      780.59927     -37.441196      743.15808    
   3833000   305.84707      0.024025475    9.7115446      758.815       -37.169525      721.64548    
   3834000   292.00581      0.024025475    12.581377      724.47445     -36.339686      688.13477    
   3835000   295.82831      0.024025475    13.929728      733.95819     -43.581184      690.37701    
   3836000   308.21741      0.024025475    11.725845      764.69589     -40.539845      724.15604    
   3837000   300.46518      0.024025475    12.328932      745.46239     -44.073419      701.38897    
   3838000   297.01483      0.024025475    12.469807      736.90199     -38.369508      698.53248    
   3839000   297.57277      0.024025475    11.891616      738.28625     -34.551901      703.73435    
   3840000   308.86164      0.024025475    7.5803447      766.29424     -39.346901      726.94734    
   3841000   297.77666      0.024025475    13.652059      738.79211     -39.205097      699.58701    
   3842000   300.96735      0.024025475    14.856058      746.70829     -40.789064      705.91922    
   3843000   286.70244      0.024025475    11.082136      711.31666     -39.471258      671.84541    
   3844000   298.04159      0.024025475    9.4364092      739.44939     -40.035975      699.41342    
   3845000   298.94625      0.024025475    15.255687      741.69388     -44.506235      697.18764    
   3846000   300.98374      0.024025475    21.128711      746.74897     -46.353785      700.39518    
   3847000   292.74539      0.024025475    16.089706      726.30937     -42.558441      683.75093    
   3848000   290.0074       0.024025475    8.4672218      719.51634     -39.916106      679.60024    
   3849000   307.40666      0.024025475    24.955996      762.6844      -38.495988      724.18841    
   3850000   300.9068       0.024025475    31.315669      746.55807     -41.860621      704.69745    
   3851000   297.04212      0.024025475    17.458757      736.96968     -43.843465      693.12621    
   3852000   279.54588      0.024025475    7.8326399      693.56103     -44.022154      649.53887    
   3853000   307.46947      0.024025475    10.642749      762.84024     -37.530606      725.30963    
   3854000   308.48531      0.024025475    18.162757      765.36056     -38.489195      726.87137    
   3855000   298.77791      0.024025475    10.893691      741.27623     -40.175737      701.1005     
   3856000   302.11701      0.024025475    11.818632      749.56063     -42.082046      707.47858    
   3857000   302.29582      0.024025475    10.022279      750.00425     -39.704844      710.29941    
   3858000   308.06565      0.024025475    18.253149      764.31936     -39.709277      724.61008    
   3859000   291.77786      0.024025475    12.000634      723.90891     -37.481723      686.42719    
   3860000   304.39658      0.024025475    11.323031      755.2163      -34.728465      720.48783    
   3861000   295.21182      0.024025475    33.893023      732.42866     -39.85011       692.57855    
   3862000   284.53612      0.024025475    7.8245271      705.94196     -38.652927      667.28904    
   3863000   304.80664      0.024025475    1.5061716      756.23367     -37.059767      719.1739     
   3864000   309.43952      0.024025475    14.680985      767.72797     -42.612066      725.1159     
   3865000   304.84625      0.024025475    15.531109      756.33194     -40.629081      715.70286    
   3866000   288.59913      0.024025475    13.866917      716.0224      -45.480696      670.5417     
   3867000   300.30214      0.024025475    8.4254043      745.05788     -48.554316      696.50356    
   3868000   315.18047      0.024025475    14.402312      781.97144     -46.044418      735.92702    
   3869000   300.8633       0.024025475    15.379222      746.45014     -40.821297      705.62884    
   3870000   292.12032      0.024025475    12.377005      724.75856     -46.807676      677.95089    
   3871000   311.68363      0.024025475    14.155568      773.29568     -41.989531      731.30615    
   3872000   297.28521      0.024025475    14.835704      737.57279     -46.842691      690.7301     
   3873000   294.88259      0.024025475    4.3189924      731.61184     -43.76401       687.84783    
   3874000   303.6016       0.024025475    8.9883618      753.24395     -39.260242      713.98371    
   3875000   299.89892      0.024025475    19.867846      744.05749     -42.441619      701.61587    
   3876000   305.10469      0.024025475    17.760055      756.97314     -39.992358      716.98079    
   3877000   290.65243      0.024025475    13.452783      721.11669     -42.211151      678.90553    
   3878000   291.26492      0.024025475    10.353975      722.63629     -45.801327      676.83496    
   3879000   293.10216      0.024025475    8.0632551      727.19453     -44.172337      683.02219    
   3880000   310.59269      0.024025475    9.5269559      770.58901     -45.546304      725.04271    
   3881000   294.55537      0.024025475    21.981614      730.79999     -44.078458      686.72153    
   3882000   285.99577      0.024025475    10.736554      709.56338     -43.721653      665.84172    
   3883000   298.49829      0.024025475    8.0627986      740.58249     -42.152224      698.43027    
   3884000   310.93842      0.024025475    14.325838      771.44679     -37.627545      733.81925    
   3885000   304.51766      0.024025475    14.195633      755.51672     -42.396469      713.12025    
   3886000   290.85076      0.024025475    6.9477199      721.60876     -38.137765      683.471      
   3887000   303.15935      0.024025475    13.82805       752.14672     -41.134425      711.01229    
   3888000   303.47304      0.024025475    10.556366      752.92497     -46.163675      706.7613     
   3889000   296.55097      0.024025475    11.121         735.75112     -51.138727      684.61239    
   3890000   306.27457      0.024025475    16.978632      759.87566     -46.734259      713.1414     
   3891000   296.04029      0.024025475    9.2458115      734.48412     -48.833283      685.65084    
   3892000   285.03273      0.024025475    9.0841698      707.17406     -47.894055      659.28001    
   3893000   298.8231       0.024025475    13.897956      741.38835     -51.522146      689.8662     
   3894000   317.78792      0.024025475    17.051719      788.44059     -47.266831      741.17376    
   3895000   298.70495      0.024025475    12.183346      741.09521     -45.023228      696.07198    
   3896000   287.61753      0.024025475    13.102449      713.58702     -45.421815      668.16521    
   3897000   300.66869      0.024025475    13.188395      745.96731     -44.901471      701.06584    
   3898000   314.67617      0.024025475    11.570696      780.72025     -49.554048      731.1662     
   3899000   291.92169      0.024025475    10.688628      724.26576     -42.25894       682.00682    
   3900000   297.62565      0.024025475    12.79295       738.41744     -41.057891      697.35955    
   3901000   306.15494      0.024025475    14.438302      759.57883     -43.173828      716.40501    
   3902000   303.40307      0.024025475    12.993036      752.75139     -47.192264      705.55912    
   3903000   290.90791      0.024025475    11.924934      721.75054     -41.997269      679.75327    
   3904000   296.25965      0.024025475    16.627891      735.02836     -42.125804      692.90256    
   3905000   321.9638       0.024025475    17.20505       798.80107     -46.313641      752.48743    
   3906000   301.3981       0.024025475    11.903968      747.77699     -44.186556      703.59043    
   3907000   299.75115      0.024025475    12.654538      743.69086     -44.493382      699.19748    
   3908000   292.16871      0.024025475    13.018446      724.87862     -42.851519      682.0271     
   3909000   304.3274       0.024025475    11.040724      755.04467     -44.999244      710.04543    
   3910000   318.30377      0.024025475    13.81619       789.72042     -47.837452      741.88297    
   3911000   294.18526      0.024025475    16.433266      729.88173     -52.790373      677.09136    
   3912000   294.13948      0.024025475    11.647354      729.76816     -54.805327      674.96284    
   3913000   314.80547      0.024025475    13.32875       781.04105     -46.036823      735.00422    
   3914000   306.154        0.024025475    12.928122      759.57651     -46.182174      713.39433    
   3915000   302.03635      0.024025475    13.671237      749.36052     -49.153092      700.20742    
   3916000   283.6418       0.024025475    13.389369      703.72311     -37.965726      665.75739    
   3917000   296.86684      0.024025475    9.8926615      736.53482     -42.100242      694.43458    
   3918000   303.76048      0.024025475    12.653957      753.63814     -37.465432      716.1727     
   3919000   298.48806      0.024025475    13.574716      740.55711     -35.207022      705.35009    
   3920000   289.89067      0.024025475    11.088878      719.22673     -39.058798      680.16794    
   3921000   299.94632      0.024025475    10.460187      744.17509     -40.676583      703.49851    
   3922000   302.17262      0.024025475    12.211636      749.69861     -39.301903      710.39671    
   3923000   303.53511      0.024025475    1.1556459      753.07897     -40.922648      712.15632    
   3924000   312.90309      0.024025475    16.803573      776.3212      -44.79693       731.52427    
   3925000   285.57179      0.024025475    14.674124      708.51149     -39.456185      669.05531    
   3926000   278.30254      0.024025475   -0.65686951     690.47628     -43.863354      646.61293    
   3927000   301.55429      0.024025475    6.8369735      748.16451     -41.852897      706.31162    
   3928000   313.73593      0.024025475    26.031527      778.38749     -45.970106      732.41738    
   3929000   295.31891      0.024025475    16.672942      732.69437     -45.622927      687.07144    
   3930000   296.55462      0.024025475    6.1724674      735.76019     -44.086665      691.67353    
   3931000   318.67297      0.024025475    7.7182227      790.63642     -45.5787        745.05772    
   3932000   292.2036       0.024025475    17.327681      724.96518     -43.035617      681.92956    
   3933000   288.69329      0.024025475    8.9601425      716.25601     -40.623811      675.6322     
   3934000   308.04275      0.024025475    6.2916661      764.26255     -41.032433      723.23012    
   3935000   304.63774      0.024025475    2.1839437      755.81463     -45.11725       710.69738    
   3936000   302.53062      0.024025475   -2.1856925      750.5868      -44.838358      705.74844    
   3937000   308.98347      0.024025475    9.5642523      766.59651     -41.5696        725.02691    
   3938000   301.08997      0.024025475    16.084925      747.01252     -40.440837      706.57169    
   3939000   293.57707      0.024025475    13.909534      728.3728      -41.882677      686.49012    
   3940000   281.44887      0.024025475    11.702688      698.28239     -44.075948      654.20645    
   3941000   305.89101      0.024025475    11.581976      758.92402     -40.089892      718.83413    
   3942000   310.52456      0.024025475    12.557464      770.42        -43.550191      726.8698     
   3943000   294.71483      0.024025475    13.454489      731.19562     -47.459643      683.73598    
   3944000   292.0228       0.024025475    12.524035      724.51661     -45.617741      678.89887    
   3945000   301.35803      0.024025475    13.450239      747.67757     -43.644869      704.0327     
   3946000   295.45567      0.024025475    9.5308326      733.03366     -40.327814      692.70584    
   3947000   297.18754      0.024025475    10.975501      737.33047     -39.265478      698.06499    
   3948000   285.8991       0.024025475    14.603851      709.32355     -37.607357      671.7162     
   3949000   306.05897      0.024025475    12.845388      759.34075     -44.048518      715.29223    
   3950000   296.6517       0.024025475    12.15239       736.00105     -43.132879      692.86817    
   3951000   288.19397      0.024025475    11.374538      715.01719     -47.255082      667.76211    
   3952000   314.26539      0.024025475    14.57249       779.7011      -41.312531      738.38856    
   3953000   293.72404      0.024025475    17.906441      728.73743     -40.494117      688.24331    
   3954000   296.9214       0.024025475    11.526357      736.67017     -44.327145      692.34303    
   3955000   306.61826      0.024025475    11.211461      760.72835     -44.76776       715.96059    
   3956000   308.4283       0.024025475    13.401565      765.21911     -41.132515      724.08659    
   3957000   296.14414      0.024025475    13.006045      734.74177     -42.025205      692.71657    
   3958000   287.67884      0.024025475    13.075767      713.73914     -40.950847      672.78829    
   3959000   312.56191      0.024025475    13.254598      775.47471     -38.734172      736.74054    
   3960000   300.85632      0.024025475    10.090324      746.43282     -37.429194      709.00363    
   3961000   295.87784      0.024025475    17.555645      734.08107     -37.370724      696.71035    
   3962000   301.42092      0.024025475    15.567306      747.8336      -38.703117      709.13049    
   3963000   316.97391      0.024025475    8.9373652      786.42101     -35.589759      750.83125    
   3964000   292.17771      0.024025475   -6.5713633      724.90095     -34.504248      690.3967     
   3965000   301.71484      0.024025475    16.123106      748.56284     -36.258099      712.30474    
   3966000   308.58764      0.024025475    19.555641      765.61445     -34.47455       731.1399     
   3967000   303.39808      0.024025475    11.075255      752.73899     -44.07164       708.66735    
   3968000   290.4916       0.024025475    12.245257      720.71768     -41.918049      678.79963    
   3969000   291.34316      0.024025475    16.246326      722.83042     -44.467337      678.36308    
   3970000   297.24687      0.024025475    12.688578      737.47767     -44.214973      693.2627     
   3971000   304.60429      0.024025475    16.085205      755.73164     -39.832611      715.89902    
   3972000   291.43569      0.024025475    11.162427      723.05997     -33.813016      689.24695    
   3973000   296.352        0.024025475    9.3247404      735.25749     -41.952224      693.30527    
   3974000   299.76463      0.024025475    13.219348      743.7243      -40.451436      703.27287    
   3975000   314.83412      0.024025475    16.129555      781.11214     -38.64297       742.46917    
   3976000   293.98602      0.024025475    11.411981      729.38741     -35.297444      694.08997    
   3977000   295.51745      0.024025475    11.738729      733.18695     -35.263928      697.92302    
   3978000   289.30091      0.024025475    15.868665      717.76354     -38.79747       678.96607    
   3979000   314.4701       0.024025475    15.887998      780.20898     -45.667767      734.54121    
   3980000   313.63336      0.024025475    16.356156      778.133       -41.422385      736.71062    
   3981000   295.33044      0.024025475    5.6323557      732.72297     -46.132293      686.59067    
   3982000   298.06538      0.024025475    18.067493      739.50842     -38.295387      701.21303    
   3983000   309.78883      0.024025475    21.687146      768.59464     -37.678691      730.91595    
   3984000   302.364        0.024025475    14.848099      750.17341     -40.184243      709.98917    
   3985000   284.53036      0.024025475    5.5784812      705.92767     -35.672049      670.25562    
   3986000   296.26128      0.024025475    6.2562582      735.0324      -39.442535      695.58987    
   3987000   289.97457      0.024025475    12.667014      719.43491     -40.669479      678.76543    
   3988000   310.76401      0.024025475    16.065995      771.01408     -36.304913      734.70916    
   3989000   297.89489      0.024025475    7.9447548      739.08543     -35.335113      703.75032    
   3990000   291.5792       0.024025475    16.619254      723.41604     -32.30655       691.10949    
   3991000   296.33997      0.024025475    15.036995      735.22764     -39.199163      696.02848    
   3992000   301.69523      0.024025475    8.9382309      748.51419     -32.924894      715.58929    
   3993000   310.81484      0.024025475    12.059881      771.14019     -32.573285      738.56691    
   3994000   298.05457      0.024025475    12.443414      739.48161     -34.338929      705.14268    
   3995000   292.09015      0.024025475    12.100105      724.68372     -38.342898      686.34082    
   3996000   299.71433      0.024025475    10.705867      743.59951     -40.72582       702.87369    
   3997000   301.48755      0.024025475    12.630427      747.99893     -36.519591      711.47934    
   3998000   295.22286      0.024025475    11.673675      732.45607     -46.089826      686.36624    
   3999000   311.36374      0.024025475    14.053575      772.50201     -40.227512      732.2745     
   4000000   314.42315      0.024025475    10.589093      780.09251     -42.041         738.05151    
Loop time of 5330.52 on 1 procs for 4000000 steps with 1500 atoms

Performance: 16.209 ns/day, 1.481 hours/ns, 750.395 timesteps/s, 1.126 Matom-step/s
100.0% CPU use with 1 MPI tasks x 1 OpenMP threads

MPI task timing breakdown:
Section |  min time  |  avg time  |  max time  |%varavg| %total
---------------------------------------------------------------
Pair    | 554.85     | 554.85     | 554.85     |   0.0 | 10.41
Bond    | 104.18     | 104.18     | 104.18     |   0.0 |  1.95
Kspace  | 4086.1     | 4086.1     | 4086.1     |   0.0 | 76.66
Neigh   | 0.031745   | 0.031745   | 0.031745   |   0.0 |  0.00
Comm    | 23.779     | 23.779     | 23.779     |   0.0 |  0.45
Output  | 0.1041     | 0.1041     | 0.1041     |   0.0 |  0.00
Modify  | 547.05     | 547.05     | 547.05     |   0.0 | 10.26
Other   |            | 14.38      |            |       |  0.27

Nlocal:           1500 ave        1500 max        1500 min
Histogram: 1 0 0 0 0 0 0 0 0 0
Nghost:           1382 ave        1382 max        1382 min
Histogram: 1 0 0 0 0 0 0 0 0 0
Neighs:              0 ave           0 max           0 min
Histogram: 1 0 0 0 0 0 0 0 0 0

Total # of neighbors = 0
Ave neighs/atom = 0
Ave special neighs/atom = 2
Neighbor list builds = 15937
Dangerous builds = 0
write_data	last_conf.data pair ij
System init for write_data ...
PPPM initialization ...
  using 12-bit tables for long-range coulomb (src/kspace.cpp:342)
  G vector (1/distance) = 0.1676322
  grid = 25 25 25
  stencil order = 5
  estimated absolute RMS force accuracy = 0.036473453
  estimated relative force accuracy = 0.00010983872
  using double precision FFTW3
  3d grid and FFT values/proc = 27000 15625
Generated 1 of 1 mixed pair_coeff terms from arithmetic mixing rule
Total wall time: 1:28:50
