LAMMPS data file via write_data, version 29 Aug 2024, timestep = 0, units = real

1500 atoms
2 atom types
1000 bonds
1 bond types
500 angles
1 angle types

0 216 xlo xhi
0 216 ylo yhi
0 216 zlo zhi

Masses

1 12.0107
2 15.9994

PairIJ Coeffs # lj/cut/coul/long/gpu

1 1 0.053649 2.8 12
1 2 0.0917684 2.925 12
2 2 0.156973 3.05 12

Bond Coeffs # harmonic

1 0 1.16

Angle Coeffs # harmonic

1 0 180

Atoms # full

1 1 1 0.7 15.914161022712552 61.304308729853624 21.516822649872314 0 0 0
2 1 2 -0.35 14.906500278470336 61.54199475548718 20.993635133075756 0 0 0
3 1 2 -0.35 16.921821766954768 61.066622704220066 22.04001016666887 0 0 0
4 2 1 0.7 49.23827640397394 51.71152158999421 147.5433630326499 0 0 0
5 2 2 -0.35 49.58559626010352 52.212088680806424 146.55624525592114 0 0 0
6 2 2 -0.35 48.89095654784436 51.210954499182 148.53048080937864 0 0 0
7 3 1 0.7 81.30248974696849 34.94517729941065 19.59487119484454 0 0 0
8 3 2 -0.35 80.83988089201551 33.881414084574146 19.593938414168505 0 0 0
9 3 2 -0.35 81.76509860192147 36.00894051424716 19.595803975520575 0 0 0
10 4 1 0.7 147.000171752181 23.886638905800243 134.74008978472096 0 0 0
11 4 2 -0.35 145.91511243442199 24.085682843951403 135.09873694786273 0 0 0
12 4 2 -0.35 148.08523106994 23.687594967649083 134.3814426215792 0 0 0
13 5 1 0.7 32.68901180508035 116.22140798541783 45.20401091743447 0 0 0
14 5 2 -0.35 32.51635303003592 116.50638643493807 46.31512577680285 0 0 0
15 5 2 -0.35 32.86167058012477 115.93642953589759 44.092896058066096 0 0 0
16 6 1 0.7 71.81148932120367 143.70102146999025 87.06784612642035 0 0 0
17 6 2 -0.35 70.72401513681424 143.87458111518052 86.70332322199869 0 0 0
18 6 2 -0.35 72.89896350559309 143.52746182479999 87.43236903084201 0 0 0
19 7 1 0.7 165.2898467468516 50.45427433515632 184.98875097231414 0 0 0
20 7 2 -0.35 164.26847414728644 50.71695045140365 184.50563683382228 0 0 0
21 7 2 -0.35 166.31121934641675 50.19159821890899 185.471865110806 0 0 0
22 8 1 0.7 1.9375916840217968 165.10343335434024 157.40438639624247 0 0 0
23 8 2 -0.35 1.4626982842920935 166.12086563616361 157.69577584491353 0 0 0
24 8 2 -0.35 2.4124850837515 164.08600107251686 157.11299694757142 0 0 0
25 9 1 0.7 143.5221616474549 104.97080877468494 172.38307612965957 0 0 0
26 9 2 -0.35 143.18140464440611 105.68282734983866 171.53306776881288 0 0 0
27 9 2 -0.35 143.8629186505037 104.25879019953122 173.23308449050626 0 0 0
28 10 1 0.7 34.3605111885632 129.11154618165995 41.75667515851403 0 0 0
29 10 2 -0.35 34.36709049853754 128.1520042074427 42.40846953743694 0 0 0
30 10 2 -0.35 34.35393187858886 130.0710881558772 41.10488077959111 0 0 0
31 11 1 0.7 20.439389145206377 84.81336348355438 74.20006809858609 0 0 0
32 11 2 -0.35 20.04497817365383 84.78418540470672 75.29056735362194 0 0 0
33 11 2 -0.35 20.833800116758923 84.84254156240205 73.10956884355024 0 0 0
34 12 1 0.7 112.54453293631995 23.965060729517166 156.77568099497617 0 0 0
35 12 2 -0.35 111.62519415769319 24.648469020798753 156.95835370098513 0 0 0
36 12 2 -0.35 113.46387171494672 23.28165243823558 156.5930082889672 0 0 0
37 13 1 0.7 160.87048256437782 78.20045949807412 171.12278413172942 0 0 0
38 13 2 -0.35 160.95545274119996 77.04961694006565 171.00471010525732 0 0 0
39 13 2 -0.35 160.78551238755568 79.3513020560826 171.24085815820152 0 0 0
40 14 1 0.7 20.632901976179753 97.1835136530844 187.31396738966646 0 0 0
41 14 2 -0.35 19.931882570670695 96.8426817073399 188.17303978350748 0 0 0
42 14 2 -0.35 21.33392138168881 97.5243455988289 186.45489499582544 0 0 0
43 15 1 0.7 201.84991812419608 211.57391336354144 130.76190104091629 0 0 0
44 15 2 -0.35 201.06328104698227 211.58002833170164 129.90939607558357 0 0 0
45 15 2 -0.35 202.6365552014099 211.56779839538123 131.614406006249 0 0 0
46 16 1 0.7 131.27079468000252 44.24618680227836 173.66158589239308 0 0 0
47 16 2 -0.35 130.1212673763816 44.096011478882815 173.62115879166723 0 0 0
48 16 2 -0.35 132.42032198362344 44.3963621256739 173.70201299311893 0 0 0
49 17 1 0.7 138.27409345017472 28.688617086358658 57.58737042992719 0 0 0
50 17 2 -0.35 137.30236698019743 29.2603058562026 57.860353246199175 0 0 0
51 17 2 -0.35 139.245819920152 28.116928316514716 57.31438761365521 0 0 0
52 18 1 0.7 190.9348157862829 145.44892005689857 87.99939629435512 0 0 0
53 18 2 -0.35 190.11917724939445 146.07070551034352 87.45743999812201 0 0 0
54 18 2 -0.35 191.75045432317137 144.82713460345363 88.54135259058823 0 0 0
55 19 1 0.7 53.853519226356184 76.09763736841158 36.99125089356268 0 0 0
56 19 2 -0.35 53.6737785878482 76.40925597016619 35.88844213865127 0 0 0
57 19 2 -0.35 54.03325986486417 75.78601876665698 38.09405964847409 0 0 0
58 20 1 0.7 63.953768108018565 54.980591468038305 10.800803319923954 0 0 0
59 20 2 -0.35 64.87422723444945 54.91589959160876 11.503775551021405 0 0 0
60 20 2 -0.35 63.03330898158769 55.04528334446785 10.097831088826503 0 0 0
61 21 1 0.7 89.10139796189098 215.1955455016324 87.53324593581875 0 0 0
62 21 2 -0.35 89.91103463302004 214.46707501659864 87.93251929230242 0 0 0
63 21 2 -0.35 88.29176129076193 215.92401598666618 87.1339725793351 0 0 0
64 22 1 0.7 211.26444330590985 113.498642426682 75.68326524444076 0 0 0
65 22 2 -0.35 210.33913829338005 112.81426902474854 75.53820084317971 0 0 0
66 22 2 -0.35 212.18974831843965 114.18301582861545 75.82832964570181 0 0 0
67 23 1 0.7 200.63896331593347 163.05645089366308 97.77016979538378 0 0 0
68 23 2 -0.35 201.40160206117994 163.65616243404827 97.13430171741655 0 0 0
69 23 2 -0.35 199.876324570687 162.4567393532779 98.40603787335101 0 0 0
70 24 1 0.7 111.24375101516198 193.7233118273892 139.70188293033368 0 0 0
71 24 2 -0.35 110.42431330000204 194.46318864171252 140.05783816712653 0 0 0
72 24 2 -0.35 112.06318873032191 192.9834350130659 139.34592769354083 0 0 0
73 25 1 0.7 49.546410118018464 46.514853536391094 71.14338612516568 0 0 0
74 25 2 -0.35 48.50258945109027 46.03148727775897 70.99373494638792 0 0 0
75 25 2 -0.35 50.590230784946655 46.99821979502322 71.29303730394344 0 0 0
76 26 1 0.7 146.89060565963882 126.40932154953914 201.4672831042983 0 0 0
77 26 2 -0.35 145.80953951622143 126.70622987456112 201.16938808908438 0 0 0
78 26 2 -0.35 147.9716718030562 126.11241322451717 201.76517811951223 0 0 0
79 27 1 0.7 44.627133941569895 96.24015596520162 100.3013071437838 0 0 0
80 27 2 -0.35 43.78044932050581 96.16591939272861 99.51186804938764 0 0 0
81 27 2 -0.35 45.47381856263398 96.31439253767464 101.09074623817996 0 0 0
82 28 1 0.7 100.06916557441892 86.46580925884928 198.85621347970152 0 0 0
83 28 2 -0.35 99.23886884511514 87.02036157126561 199.44670401654454 0 0 0
84 28 2 -0.35 100.8994623037227 85.91125694643294 198.2657229428585 0 0 0
85 29 1 0.7 8.379953343598151 9.875845854112805 95.34127007394157 0 0 0
86 29 2 -0.35 7.2205806687566065 9.900639678289492 95.3702574352126 0 0 0
87 29 2 -0.35 9.539326018439697 9.851052029936119 95.31228271267055 0 0 0
88 30 1 0.7 112.72613273594813 52.1128930803914 197.3940021383548 0 0 0
89 30 2 -0.35 111.80630724661181 52.16192739241987 196.68893710205595 0 0 0
90 30 2 -0.35 113.64595822528445 52.063858768362934 198.09906717465367 0 0 0
91 31 1 0.7 56.99393932940156 153.13830925204712 155.56359915601257 0 0 0
92 31 2 -0.35 57.306119471035515 152.15276723966917 155.0374333066766 0 0 0
93 31 2 -0.35 56.68175918776761 154.12385126442507 156.08976500534854 0 0 0
94 32 1 0.7 93.41101510329685 70.93084111014886 30.646538271869783 0 0 0
95 32 2 -0.35 92.61964382883275 70.08338636197257 30.612597798294438 0 0 0
96 32 2 -0.35 94.20238637776094 71.77829585832515 30.68047874544513 0 0 0
97 33 1 0.7 132.36873531544987 137.3344467661038 4.046797907001711 0 0 0
98 33 2 -0.35 131.2276038033582 137.17108100447808 4.176144341199979 0 0 0
99 33 2 -0.35 133.50986682754154 137.49781252772954 3.9174514728034424 0 0 0
100 34 1 0.7 190.5324229777476 78.43298700378881 191.21257267855694 0 0 0
101 34 2 -0.35 189.5338053544696 78.38057938493498 190.62468129065888 0 0 0
102 34 2 -0.35 191.53104060102558 78.48539462264264 191.800464066455 0 0 0
103 35 1 0.7 61.70900850636372 127.30596645516621 151.3782119785334 0 0 0
104 35 2 -0.35 60.562796945637864 127.48416854583051 151.37164898064643 0 0 0
105 35 2 -0.35 62.85522006708958 127.12776436450191 151.38477497642035 0 0 0
106 36 1 0.7 165.60872321091998 9.811005932190923 85.57670233285832 0 0 0
107 36 2 -0.35 164.6280904136635 9.256157738289682 85.85256968987876 0 0 0
108 36 2 -0.35 166.58935600817645 10.365854126092165 85.30083497583787 0 0 0
109 37 1 0.7 159.63610834983928 68.07303574870947 167.5118285601548 0 0 0
110 37 2 -0.35 158.4769016865353 68.07045674443508 167.46901196887677 0 0 0
111 37 2 -0.35 160.79531501314324 68.07561475298387 167.55464515143285 0 0 0
112 38 1 0.7 27.302610521811342 90.9750400832738 169.49867958272745 0 0 0
113 38 2 -0.35 27.345598630789045 91.58432226797979 168.51251162447366 0 0 0
114 38 2 -0.35 27.25962241283364 90.36575789856781 170.48484754098124 0 0 0
115 39 1 0.7 156.30774690038885 72.30215483545426 182.31631947975436 0 0 0
116 39 2 -0.35 155.51916003598544 71.58758384356038 181.85467128595934 0 0 0
117 39 2 -0.35 157.09633376479226 73.01672582734814 182.77796767354937 0 0 0
118 40 1 0.7 14.3814962312493 5.807158606968429 184.91470731837427 0 0 0
119 40 2 -0.35 14.129817971757936 5.847739497880279 186.0463482707051 0 0 0
120 40 2 -0.35 14.633174490740666 5.766577716056578 183.78306636604344 0 0 0
121 41 1 0.7 53.485899916610634 161.51989847492422 192.93366805134977 0 0 0
122 41 2 -0.35 52.96486748587057 162.2726197489273 192.22125251966878 0 0 0
123 41 2 -0.35 54.0069323473507 160.76717720092114 193.64608358303076 0 0 0
124 42 1 0.7 44.158939035683375 3.2883727305048946 187.68048159576975 0 0 0
125 42 2 -0.35 43.016318705541664 3.121892247429482 187.79140061984506 0 0 0
126 42 2 -0.35 45.301559365825085 3.454853213580307 187.56956257169443 0 0 0
127 43 1 0.7 97.85418010216866 11.204977148773603 186.050939437957 0 0 0
128 43 2 -0.35 98.95923967417616 11.262743455941596 185.70293599534364 0 0 0
129 43 2 -0.35 96.74912053016115 11.14721084160561 186.39894288057036 0 0 0
130 44 1 0.7 142.13913374307523 188.4208198657356 12.71948341872519 0 0 0
131 44 2 -0.35 141.51835488742083 189.3031416724512 12.293171512057652 0 0 0
132 44 2 -0.35 142.75991259872964 187.53849805902001 13.145795325392728 0 0 0
133 45 1 0.7 152.35781851427527 213.8557694246321 33.916719791440634 0 0 0
134 45 2 -0.35 151.23585392487445 213.6237761072397 34.098308780137394 0 0 0
135 45 2 -0.35 153.47978310367608 214.08776274202447 33.735130802743875 0 0 0
136 46 1 0.7 14.309534742641047 92.3504195680611 173.50168040278444 0 0 0
137 46 2 -0.35 14.001785870192801 92.0076904237313 174.56630586046137 0 0 0
138 46 2 -0.35 14.617283615089292 92.6931487123909 172.43705494510752 0 0 0
139 47 1 0.7 42.742529598410485 173.69496048507048 51.20087257921736 0 0 0
140 47 2 -0.35 42.01891966065591 173.84322024513432 52.0953040754923 0 0 0
141 47 2 -0.35 43.46613953616506 173.54670072500664 50.30644108294242 0 0 0
142 48 1 0.7 205.06543890622697 38.83169695680574 108.33075303413476 0 0 0
143 48 2 -0.35 204.0553905589292 38.266719422257154 108.40951039300631 0 0 0
144 48 2 -0.35 206.07548725352476 39.39667449135433 108.2519956752632 0 0 0
145 49 1 0.7 50.96624470267736 149.67471789832913 46.98371721756818 0 0 0
146 49 2 -0.35 51.14641647389325 148.7839834817853 46.26279396781045 0 0 0
147 49 2 -0.35 50.78607293146147 150.56545231487297 47.7046404673259 0 0 0
148 50 1 0.7 175.33527566834132 187.9781578127193 132.89835837338975 0 0 0
149 50 2 -0.35 174.6654835529503 187.18553779746813 133.4167520785823 0 0 0
150 50 2 -0.35 176.00506778373236 188.77077782797048 132.3799646681972 0 0 0
151 51 1 0.7 182.709181561465 137.21450354215432 148.1610329878335 0 0 0
152 51 2 -0.35 181.8852717948039 137.76944216820684 148.7600453564165 0 0 0
153 51 2 -0.35 183.53309132812606 136.6595649161018 147.5620206192505 0 0 0
154 52 1 0.7 94.48142651770331 133.33548303941984 185.46344352954227 0 0 0
155 52 2 -0.35 94.43028005839916 132.17664288931596 185.47201943811606 0 0 0
156 52 2 -0.35 94.53257297700746 134.49432318952373 185.45486762096849 0 0 0
157 53 1 0.7 204.09540101703973 151.4048933868319 182.04315248413158 0 0 0
158 53 2 -0.35 203.05572965561993 151.3270486943557 181.53460193197697 0 0 0
159 53 2 -0.35 205.13507237845954 151.4827380793081 182.5517030362862 0 0 0
160 54 1 0.7 175.26380079950383 66.70003726086581 203.5262433716684 0 0 0
161 54 2 -0.35 174.54359052430902 67.56950565644037 203.79255497224347 0 0 0
162 54 2 -0.35 175.98401107469863 65.83056886529126 203.2599317710933 0 0 0
163 55 1 0.7 89.57234763054753 138.44662661219326 120.45347113183395 0 0 0
164 55 2 -0.35 88.74910386900389 138.27970483170805 121.25347539949702 0 0 0
165 55 2 -0.35 90.39559139209116 138.61354839267847 119.65346686417088 0 0 0
166 56 1 0.7 109.48931273328574 82.87910833343821 181.17376009615776 0 0 0
167 56 2 -0.35 108.35025674772061 82.82422995731704 180.9612987453606 0 0 0
168 56 2 -0.35 110.62836871885088 82.93398670955938 181.38622144695492 0 0 0
169 57 1 0.7 35.38593612396435 83.42843546878008 125.714923786798 0 0 0
170 57 2 -0.35 34.277594048979566 83.49619095930555 125.37938386618933 0 0 0
171 57 2 -0.35 36.49427819894913 83.36067997825461 126.05046370740666 0 0 0
172 58 1 0.7 194.72408471383346 111.69178539872718 163.83719640776386 0 0 0
173 58 2 -0.35 195.09713250582388 110.68313074286978 164.2719965113842 0 0 0
174 58 2 -0.35 194.35103692184305 112.70044005458458 163.4023963041435 0 0 0
175 59 1 0.7 43.76002528693528 210.74499752127798 23.17334011903654 0 0 0
176 59 2 -0.35 43.503988229714416 209.6882330811651 22.769243665893786 0 0 0
177 59 2 -0.35 44.01606234415615 211.80176196139087 23.57743657217929 0 0 0
178 60 1 0.7 26.327380647103944 116.28653587600522 59.8084680195006 0 0 0
179 60 2 -0.35 25.307572919343958 116.0212681808802 59.32346776349647 0 0 0
180 60 2 -0.35 27.34718837486393 116.55180357113024 60.293468275504736 0 0 0
181 61 1 0.7 152.92200374646205 192.11696678778014 141.86080222104715 0 0 0
182 61 2 -0.35 151.8516283401624 192.41165564887044 142.19703869250455 0 0 0
183 61 2 -0.35 153.9923791527617 191.82227792668985 141.52456574958975 0 0 0
184 62 1 0.7 46.5029291391852 86.73004228562584 103.82069451353546 0 0 0
185 62 2 -0.35 47.06698193468795 87.54115340305485 104.42859516254696 0 0 0
186 62 2 -0.35 45.938876343682445 85.91893116819683 103.21279386452396 0 0 0
187 63 1 0.7 66.41268899031574 126.06386023669683 11.2989981636866 0 0 0
188 63 2 -0.35 65.34882019305063 126.48904964693962 11.117346993519552 0 0 0
189 63 2 -0.35 67.47655778758086 125.63867082645403 11.480649333853647 0 0 0
190 64 1 0.7 38.26213708066481 39.73791473346665 3.132925374029635 0 0 0
191 64 2 -0.35 38.30238441033687 40.64505414648515 2.411067882690297 0 0 0
192 64 2 -0.35 38.221889750992744 38.830775320448154 3.854782865368973 0 0 0
193 65 1 0.7 167.07676131607815 59.12743932526905 154.87273979693313 0 0 0
194 65 2 -0.35 167.3467695683601 58.51363300259331 155.81927946432322 0 0 0
195 65 2 -0.35 166.8067530637962 59.741245647944794 153.92620012954305 0 0 0
196 66 1 0.7 146.13776705513604 1.4508956714770271 193.2035505143942 0 0 0
197 66 2 -0.35 145.3949596525648 1.6777232310084533 192.34193202519936 0 0 0
198 66 2 -0.35 146.88057445770727 1.224068111945601 194.06516900358906 0 0 0
199 67 1 0.7 44.07349542345549 79.23758201638124 106.04094931950837 0 0 0
200 67 2 -0.35 43.6772699221449 78.24623717612181 105.5872525487438 0 0 0
201 67 2 -0.35 44.46972092476608 80.22892685664067 106.49464609027294 0 0 0
202 68 1 0.7 14.235212977153813 139.22450702415057 18.289554898761935 0 0 0
203 68 2 -0.35 13.580515018501996 139.89021005400207 17.601216276437377 0 0 0
204 68 2 -0.35 14.889910935805629 138.55880399429907 18.977893521086493 0 0 0
205 69 1 0.7 24.549183491873176 38.12694791244667 143.61356449109203 0 0 0
206 69 2 -0.35 23.44681472277507 38.18315806350342 143.97024854713504 0 0 0
207 69 2 -0.35 25.651552260971282 38.070737761389914 143.25688043504903 0 0 0
208 70 1 0.7 129.17840178365745 85.39877793071736 193.26068156643802 0 0 0
209 70 2 -0.35 128.0646314148123 85.47689423641705 192.94601760557433 0 0 0
210 70 2 -0.35 130.2921721525026 85.32066162501766 193.57534552730172 0 0 0
211 71 1 0.7 140.27508712386484 179.38929079630847 67.81041355608515 0 0 0
212 71 2 -0.35 141.3184082944473 178.95021480382883 68.0639746095663 0 0 0
213 71 2 -0.35 139.23176595328238 179.82836678878812 67.556852502604 0 0 0
214 72 1 0.7 73.62063712329633 94.04813124148554 194.94177564743057 0 0 0
215 72 2 -0.35 72.4633926543886 94.06641406760893 195.01956367640298 0 0 0
216 72 2 -0.35 74.77788159220407 94.02984841536214 194.86398761845817 0 0 0
217 73 1 0.7 98.42330636569453 72.5100882279268 5.0528467656359295 0 0 0
218 73 2 -0.35 98.37141922516204 73.60406300047595 5.435112277647403 0 0 0
219 73 2 -0.35 98.47519350622701 71.41611345537765 4.670581253624456 0 0 0
220 74 1 0.7 35.19559004306588 124.28185380822133 85.11695477604725 0 0 0
221 74 2 -0.35 34.04623929787054 124.37746902128389 84.99265435147062 0 0 0
222 74 2 -0.35 36.34494078826121 124.18623859515877 85.24125520062388 0 0 0
223 75 1 0.7 208.65892102600023 170.485683986212 112.89075626474374 0 0 0
224 75 2 -0.35 208.12163115713528 169.79336007940714 112.13075152470489 0 0 0
225 75 2 -0.35 209.19621089486517 171.17800789301685 113.6507610047826 0 0 0
226 76 1 0.7 10.940541548161088 61.6817999434107 102.0116489036063 0 0 0
227 76 2 -0.35 11.897955780086823 62.01046931300363 102.57815965725308 0 0 0
228 76 2 -0.35 9.983127316235352 61.35313057381777 101.44513814995952 0 0 0
229 77 1 0.7 117.78312291101697 156.94676546237747 12.287126178055594 0 0 0
230 77 2 -0.35 116.96359239237437 157.55227268413114 11.732751996281639 0 0 0
231 77 2 -0.35 118.60265342965958 156.3412582406238 12.84150035982955 0 0 0
232 78 1 0.7 13.7296745803811 66.64067246515336 69.78212183238107 0 0 0
233 78 2 -0.35 13.865627168927274 66.13341404962435 68.74780766659651 0 0 0
234 78 2 -0.35 13.593721991834927 67.14793088068237 70.81643599816562 0 0 0
235 79 1 0.7 164.1216368284643 72.35017599926803 125.4080196979493 0 0 0
236 79 2 -0.35 163.2086997393761 71.72635892484794 125.05730880700189 0 0 0
237 79 2 -0.35 165.03457391755248 72.97399307368812 125.75873058889671 0 0 0
238 80 1 0.7 4.587063433875825 198.77513315099065 157.6628686998332 0 0 0
239 80 2 -0.35 5.522172782806847 198.18201872004045 158.008391169928 0 0 0
240 80 2 -0.35 3.6519540849448022 199.36824758194086 157.31734622973843 0 0 0
241 81 1 0.7 167.83423809699445 46.039696185868095 77.1737958850217 0 0 0
242 81 2 -0.35 167.0902343696736 46.875483505589784 77.47960303000872 0 0 0
243 81 2 -0.35 168.5782418243153 45.203908866146406 76.86798874003469 0 0 0
244 82 1 0.7 195.98743955976678 176.8966809999648 78.5175664082717 0 0 0
245 82 2 -0.35 196.26283840756855 175.85698329962887 78.9520594076925 0 0 0
246 82 2 -0.35 195.71204071196502 177.9363787003007 78.08307340885091 0 0 0
247 83 1 0.7 100.73862382245186 106.05058394840479 176.16442083947567 0 0 0
248 83 2 -0.35 99.85534616073461 106.09920786618046 175.41405007316646 0 0 0
249 83 2 -0.35 101.6219014841691 106.00196003062912 176.91479160578487 0 0 0
250 84 1 0.7 83.42104906748098 1.571677152799292 63.177907097701876 0 0 0
251 84 2 -0.35 84.57215547771315 1.4283418727518873 63.17490213245737 0 0 0
252 84 2 -0.35 82.2699426572488 1.715012432846697 63.18091206294638 0 0 0
253 85 1 0.7 191.08459107535174 70.72220343664391 196.0731596742166 0 0 0
254 85 2 -0.35 191.99056869027118 70.04210363140845 195.8236224702097 0 0 0
255 85 2 -0.35 190.1786134604323 71.40230324187937 196.32269687822352 0 0 0
256 86 1 0.7 105.59464455842722 73.19109348635706 2.7082252030764824 0 0 0
257 86 2 -0.35 104.95929390277587 73.5062337459874 3.626166465425834 0 0 0
258 86 2 -0.35 106.22999521407857 72.87595322672672 1.790283940727131 0 0 0
259 87 1 0.7 157.14098810643935 36.587104926159185 183.4724939574825 0 0 0
260 87 2 -0.35 156.8275526755662 36.078066097431105 184.4665954118223 0 0 0
261 87 2 -0.35 157.4544235373125 37.096143754887265 182.4783925031427 0 0 0
262 88 1 0.7 6.205943408518072 191.29086696323512 81.60105109289339 0 0 0
263 88 2 -0.35 6.210594135016611 191.03200993270386 80.4703117734711 0 0 0
264 88 2 -0.35 6.201292682019534 191.54972399376638 82.73179041231568 0 0 0
265 89 1 0.7 84.86571825894794 90.12677813792916 168.76016417553654 0 0 0
266 89 2 -0.35 84.08962359884254 90.61944295805554 168.052662618248 0 0 0
267 89 2 -0.35 85.64181291905334 89.63411331780279 169.46766573282508 0 0 0
268 90 1 0.7 56.079298242963525 116.7655694879431 118.92638385990931 0 0 0
269 90 2 -0.35 56.833436117204144 115.98981478684965 119.34481032939617 0 0 0
270 90 2 -0.35 55.325160368722905 117.54132418903654 118.50795739042245 0 0 0
271 91 1 0.7 147.73353349591304 37.497465810504494 147.90787714901748 0 0 0
272 91 2 -0.35 146.72751550229677 37.298973427705015 147.36554093365757 0 0 0
273 91 2 -0.35 148.7395514895293 37.69595819330397 148.4502133643774 0 0 0
274 92 1 0.7 159.69124353662656 130.73012008272582 29.12823037296917 0 0 0
275 92 2 -0.35 158.8052638454245 130.43762267278362 29.81749465606719 0 0 0
276 92 2 -0.35 160.57722322782863 131.02261749266802 28.43896608987115 0 0 0
277 93 1 0.7 102.1678784928135 151.53382871650803 189.0592383505121 0 0 0
278 93 2 -0.35 101.00888247025463 151.4866404006189 189.06931220460504 0 0 0
279 93 2 -0.35 103.32687451537237 151.58101703239714 189.04916449641914 0 0 0
280 94 1 0.7 158.61895705695215 36.81125619486499 62.78286709579773 0 0 0
281 94 2 -0.35 158.7084121152243 36.148958947130666 63.73100218543056 0 0 0
282 94 2 -0.35 158.52950199868002 37.47355344259931 61.83473200616489 0 0 0
283 95 1 0.7 31.64727907238867 103.81936963639193 44.14547883912245 0 0 0
284 95 2 -0.35 30.496387302572344 103.68067585156366 44.18804840828936 0 0 0
285 95 2 -0.35 32.798170842204996 103.95806342122019 44.10290926995553 0 0 0
286 96 1 0.7 209.06284913097642 47.30534432051021 180.92199481507856 0 0 0
287 96 2 -0.35 208.4446683507447 47.6404702395084 181.8445690079583 0 0 0
288 96 2 -0.35 209.68102991120813 46.970218401512014 179.9994206221988 0 0 0
289 97 1 0.7 123.96685702538439 190.9660256351186 21.9928494384479 0 0 0
290 97 2 -0.35 123.95885937689387 191.42749332151098 20.92862032212272 0 0 0
291 97 2 -0.35 123.9748546738749 190.50455794872622 23.057078554773085 0 0 0
292 98 1 0.7 57.820511993868514 5.3450809481298 194.77549521754287 0 0 0
293 98 2 -0.35 57.52906158580953 4.761324007852396 195.73460130881756 0 0 0
294 98 2 -0.35 58.1119624019275 5.9288378884072035 193.81638912626818 0 0 0
295 99 1 0.7 111.74812124285293 30.673728629329116 157.35707313444328 0 0 0
296 99 2 -0.35 110.65081962527472 30.398076828616677 157.1010550787827 0 0 0
297 99 2 -0.35 112.84542286043114 30.949380430041554 157.61309119010386 0 0 0
298 100 1 0.7 212.32817058839285 63.56307911852518 184.67074505270958 0 0 0
299 100 2 -0.35 212.06058006871166 64.67995263942397 184.5076841680932 0 0 0
300 100 2 -0.35 212.59576110807404 62.44620559762639 184.83380593732596 0 0 0
301 101 1 0.7 57.21210089009819 147.7796598802226 164.74360690114258 0 0 0
302 101 2 -0.35 56.340964787005774 147.68429190737876 163.98358924368677 0 0 0
303 101 2 -0.35 58.08323699319061 147.87502785306643 165.5036245585984 0 0 0
304 102 1 0.7 157.80118750305903 116.55836391288712 92.42228389364774 0 0 0
305 102 2 -0.35 158.89650793388589 116.9402129388634 92.41425425018049 0 0 0
306 102 2 -0.35 156.70586707223217 116.17651488691084 92.430313537115 0 0 0
307 103 1 0.7 85.32540053749709 40.006833713504875 202.85422287641754 0 0 0
308 103 2 -0.35 84.29929735813384 39.4671551936115 202.81602129966566 0 0 0
309 103 2 -0.35 86.35150371686034 40.54651223339825 202.8924244531694 0 0 0
310 104 1 0.7 26.923883949836664 205.71754490477852 198.7772146122424 0 0 0
311 104 2 -0.35 25.76428909178307 205.73938502021468 198.75570241724978 0 0 0
312 104 2 -0.35 28.08347880789026 205.69570478934236 198.79872680723503 0 0 0
313 105 1 0.7 192.6459879580168 177.1196103883533 153.2917970536704 0 0 0
314 105 2 -0.35 191.76604475858556 177.76566913985604 152.89948588204584 0 0 0
315 105 2 -0.35 193.52593115744804 176.47355163685054 153.68410822529495 0 0 0
316 106 1 0.7 143.23308103868416 214.39301716461452 207.4394856763256 0 0 0
317 106 2 -0.35 142.10305196521833 214.3144433464278 207.18956479240933 0 0 0
318 106 2 -0.35 144.36311011215 214.47159098280125 207.68940656024188 0 0 0
319 107 1 0.7 195.43576200466404 192.85201238880495 183.77221864451292 0 0 0
320 107 2 -0.35 196.13475451784117 191.93453434850505 183.89568326329012 0 0 0
321 107 2 -0.35 194.7367694914869 193.76949042910485 183.6487540257357 0 0 0
322 108 1 0.7 75.67875832863093 124.89122930024342 174.89084919117894 0 0 0
323 108 2 -0.35 76.82981113316177 124.93555588289479 175.0276431795416 0 0 0
324 108 2 -0.35 74.5277055241001 124.84690271759206 174.7540552028163 0 0 0
325 109 1 0.7 62.50235614483355 69.09972621737967 143.09853550004703 0 0 0
326 109 2 -0.35 61.354448484216746 69.20092368347761 142.9656179483369 0 0 0
327 109 2 -0.35 63.65026380545035 68.99852875128173 143.23145305175717 0 0 0
328 110 1 0.7 113.08614929070983 54.91112896004279 139.34443143910934 0 0 0
329 110 2 -0.35 113.8573920682825 55.67634536013923 139.750914451135 0 0 0
330 110 2 -0.35 112.31490651313716 54.145912559946346 138.93794842708368 0 0 0
331 111 1 0.7 89.85919711080342 207.5258412731466 134.8142777750335 0 0 0
332 111 2 -0.35 89.02034534401317 207.8185993350755 135.56007964586013 0 0 0
333 111 2 -0.35 90.69804887759368 207.2330832112177 134.06847590420688 0 0 0
334 112 1 0.7 199.56656498814306 67.25775572064228 73.10039683482628 0 0 0
335 112 2 -0.35 198.69133472862617 66.54293527627794 73.36231996313835 0 0 0
336 112 2 -0.35 200.44179524765994 67.97257616500661 72.83847370651422 0 0 0
337 113 1 0.7 206.36960292531623 141.91636579014192 116.35983491519458 0 0 0
338 113 2 -0.35 205.37745175437072 142.49312770459713 116.52889628874118 0 0 0
339 113 2 -0.35 207.36175409626173 141.33960387568672 116.19077354164799 0 0 0
340 114 1 0.7 211.74541967536575 205.26848387218476 211.408439809181 0 0 0
341 114 2 -0.35 210.66276210604522 205.0061145961846 211.08499746408046 0 0 0
342 114 2 -0.35 212.82807724468628 205.53085314818492 211.73188215428155 0 0 0
343 115 1 0.7 157.64787290508295 131.7999157289974 81.18365725930019 0 0 0
344 115 2 -0.35 158.56149778610208 131.93426217492342 80.48163118482017 0 0 0
345 115 2 -0.35 156.73424802406382 131.6655692830714 81.88568333378021 0 0 0
346 116 1 0.7 197.72755705831923 47.05147917151985 18.210435734228433 0 0 0
347 116 2 -0.35 197.9566363208277 45.97644682575133 17.83972270904586 0 0 0
348 116 2 -0.35 197.49847779581077 48.12651151728837 18.581148759411008 0 0 0
349 117 1 0.7 206.79338517728885 136.4246746936928 49.50757689471709 0 0 0
350 117 2 -0.35 206.98390913943172 136.3129925285967 48.368793458830865 0 0 0
351 117 2 -0.35 206.602861215146 136.53635685878888 50.646360330603315 0 0 0
352 118 1 0.7 41.844869510198414 206.7218579047927 14.265805850860573 0 0 0
353 118 2 -0.35 40.69027767329711 206.79465030405012 14.350770295019393 0 0 0
354 118 2 -0.35 42.99946134709972 206.64906550553528 14.180841406701754 0 0 0
355 119 1 0.7 5.398935413639497 19.90749703902169 1.3027348375426302 0 0 0
356 119 2 -0.35 6.3960311374266166 20.334113336119596 1.7143155132988026 0 0 0
357 119 2 -0.35 4.401839689852377 19.48088074192378 0.8911541617864579 0 0 0
358 120 1 0.7 79.0644145789856 3.6158290112464826 75.23819201962938 0 0 0
359 120 2 -0.35 78.41236119328133 2.731407100975022 75.60997726250942 0 0 0
360 120 2 -0.35 79.71646796468988 4.500250921517943 74.86640677674934 0 0 0
361 121 1 0.7 64.29327391101666 145.0546224569225 157.03963349621725 0 0 0
362 121 2 -0.35 63.2479344874448 144.573839180513 157.18698657779825 0 0 0
363 121 2 -0.35 65.3386133345885 145.53540573333197 156.89228041463625 0 0 0
364 122 1 0.7 61.120170923471534 166.7127107860114 204.53018049361657 0 0 0
365 122 2 -0.35 60.167027619443985 166.12246857500665 204.23230136656053 0 0 0
366 122 2 -0.35 62.07331422749908 167.30295299701615 204.8280596206726 0 0 0
367 123 1 0.7 114.74355621391142 46.94928720917054 28.67012452924164 0 0 0
368 123 2 -0.35 114.73456433823561 47.48366875674008 27.640583122697436 0 0 0
369 123 2 -0.35 114.75254808958722 46.414905661601004 29.699665935785845 0 0 0
370 124 1 0.7 178.78296296428096 29.258540670042176 132.2930413988852 0 0 0
371 124 2 -0.35 177.630885436305 29.35568057592058 132.3872815613359 0 0 0
372 124 2 -0.35 179.93504049225692 29.161400764163773 132.19880123643452 0 0 0
373 125 1 0.7 161.14679106378313 186.11740900302186 179.29311378826065 0 0 0
374 125 2 -0.35 160.2678215669449 186.49710149995198 178.63825026705726 0 0 0
375 125 2 -0.35 162.02576056062136 185.73771650609174 179.94797730946405 0 0 0
376 126 1 0.7 179.36343929700715 65.32426479893005 192.918475617151 0 0 0
377 126 2 -0.35 178.7193066600661 64.42870876000634 193.27718514751598 0 0 0
378 126 2 -0.35 180.00757193394819 66.21982083785375 192.559766086786 0 0 0
379 127 1 0.7 4.819697456816071 4.655156707696224 47.21878625043612 0 0 0
380 127 2 -0.35 4.4692353264849265 5.604940489052462 47.785078634171235 0 0 0
381 127 2 -0.35 5.170159587147215 3.705372926339986 46.652493866701 0 0 0
382 128 1 0.7 22.14051107975678 163.56971747221877 84.24155558098181 0 0 0
383 128 2 -0.35 21.232072286140358 163.0457020832545 83.74582699558316 0 0 0
384 128 2 -0.35 23.048949873373203 164.09373286118304 84.73728416638046 0 0 0
385 129 1 0.7 183.8246495611149 92.88517365832122 89.11367540485863 0 0 0
386 129 2 -0.35 182.76414560115805 93.34998024149465 89.1835767006583 0 0 0
387 129 2 -0.35 184.88515352107177 92.4203670751478 89.04377410905894 0 0 0
388 130 1 0.7 205.54252945889837 65.29261570484034 92.99215125152476 0 0 0
389 130 2 -0.35 204.47269013140763 65.06642022991001 92.60500861569757 0 0 0
390 130 2 -0.35 206.6123687863891 65.51881117977068 93.37929388735195 0 0 0
391 131 1 0.7 159.086084376595 111.82011743254033 160.71368870544885 0 0 0