LAMMPS data file via write_data, version 29 Aug 2024, timestep = 4000000, units = real

1500 atoms
2 atom types
1000 bonds
1 bond types
500 angles
1 angle types

0 216 xlo xhi
0 216 ylo yhi
0 216 zlo zhi

Masses

1 12.0107
2 15.9994

PairIJ Coeffs # lj/cut/coul/long/gpu

1 1 0.053649 2.8 12
1 2 0.0917684 2.925 12
2 2 0.156973 3.05 12

Bond Coeffs # harmonic

1 0 1.16

Angle Coeffs # harmonic

1 0 180

Atoms # full

1167 389 2 -0.35 12.078029502264638 13.901189099947267 1.512807851246592 1 -7 -3
1165 389 1 0.7 11.203218015259173 14.057167853531666 2.258445491546647 1 -7 -3
1166 389 2 -0.35 10.328406528253709 14.213146607116066 3.004083131846702 1 -7 -3
815 272 2 -0.35 35.698867654249405 11.782490872405162 16.042630205255996 -1 -8 3
814 272 1 0.7 34.65387638095784 11.98824337088817 16.50225956475245 -1 -8 3
816 272 2 -0.35 33.608885107666275 12.193995869371179 16.961888924248903 -1 -8 3
1182 394 2 -0.35 46.01589059279888 215.6859330043539 8.17325423753568 2 -9 5
4 2 1 0.7 48.02150349858285 13.442727018107098 15.99707723623984 1 0 6
6 2 2 -0.35 48.095799689784144 12.70280979150247 15.106794936209514 1 0 6
5 2 2 -0.35 47.94720730738156 14.182644244711726 16.887359536270164 1 0 6
1371 457 2 -0.35 112.3026515645079 17.941658724241478 6.180368238372676 -1 1 12
1369 457 1 0.7 113.09377000001473 17.50016552323743 6.904809660757899 -1 1 12
1370 457 2 -0.35 113.88488843552156 17.05867232223338 7.6292510831431235 -1 1 12
944 315 2 -0.35 111.48841398046996 0.995402235599723 215.87731867936748 2 1 0
943 315 1 0.7 111.87011729360196 1.5917889501331122 0.7961361081702087 2 1 1
945 315 2 -0.35 112.25182060673396 2.1881756646665016 1.7149535369729432 2 1 1
142 48 1 0.7 141.81088875053052 12.140418115633285 8.390594208834385 2 5 2
143 48 2 -0.35 141.78151531890907 12.395539413321442 7.259377905477353 2 5 2
552 184 2 -0.35 148.78662168363755 11.462288723488774 3.286345823033182 -8 8 4
144 48 2 -0.35 141.840262182152 11.885296817945125 9.521810512191417 2 5 2
550 184 1 0.7 148.37323059128582 12.542668723969346 3.3728724624321673 -8 8 4
551 184 2 -0.35 147.9598394989341 13.623048724449918 3.459399101831153 -8 8 4
284 95 2 -0.35 169.4944712012255 0.8484206760262778 215.8720737950803 1 6 0
283 95 1 0.7 168.86079725380515 1.27084102004403 0.7470700129689772 1 6 1
285 95 2 -0.35 168.22712330638478 1.6932613640617826 1.6220662308576788 1 6 1
320 107 2 -0.35 207.89925702667531 5.962708169095838 12.88913654541307 0 3 4
321 107 2 -0.35 207.23880652861843 3.7660332408040698 12.541538503079462 0 3 4
319 107 1 0.7 207.56903177764687 4.864370704949954 12.715337524246266 0 3 4
141 47 2 -0.35 91.05410982894588 33.136867250385386 12.911851168576627 -4 -7 -5
139 47 1 0.7 90.28301347070655 33.68701891606249 12.242266557744468 -4 -7 -5
140 47 2 -0.35 89.51191711246722 34.2371705817396 11.57268194691231 -4 -7 -5
77 26 2 -0.35 102.0913151015895 21.446120294489244 3.6221544661017466 -6 8 3
76 26 1 0.7 101.11140595904365 21.930091666191817 3.233374600717956 -6 8 3
78 26 2 -0.35 100.1314968164978 22.41406303789439 2.844594735334165 -6 8 3
1307 436 2 -0.35 122.38718701472604 27.280718346061335 11.223008395285866 -6 -5 -7
1308 436 2 -0.35 121.06102322994286 27.128757807292825 13.120532469070717 -6 -5 -7
1306 436 1 0.7 121.72410512233445 27.20473807667708 12.171770432178292 -6 -5 -7
1251 417 2 -0.35 133.1404908756178 35.44832136018532 14.229175368954042 -2 4 0
1249 417 1 0.7 132.4989412711613 36.384448759957586 13.989009600334455 -2 4 0
1250 417 2 -0.35 131.8573916667048 37.32057615972985 13.74884383171487 -2 4 0
480 160 2 -0.35 141.47603757712005 31.25874392085669 17.92343708817308 -1 4 7
478 160 1 0.7 140.99883585676866 30.441331037884975 17.252829381055992 -1 4 7
479 160 2 -0.35 140.52163413641728 29.62391815491326 16.582221673938903 -1 4 7
594 198 2 -0.35 12.313284581434967 54.92286129177586 2.828467587980663 -1 4 3
592 198 1 0.7 11.699004659975468 54.07511328865162 2.328884260307348 -1 4 3
593 198 2 -0.35 11.08472473851597 53.227365285527384 1.829300932634033 -1 4 3
1447 483 1 0.7 14.620967167694165 56.96354058780885 13.723937348942341 -4 0 -3
1449 483 2 -0.35 15.193740540185592 55.954826097707794 13.718863768143292 -4 0 -3
1448 483 2 -0.35 14.048193795202737 57.97225507790991 13.72901092974139 -4 0 -3
663 221 2 -0.35 14.520525529046386 58.32432938696751 8.333041248984804 -1 7 4
722 241 2 -0.35 98.7860360386477 51.94380689779802 20.36641232569293 0 3 1
721 241 1 0.7 99.59528992277646 52.71213715522336 20.683235251863653 0 3 1
686 229 2 -0.35 130.3271973721706 57.17881040534776 16.982948772552387 -1 1 -4
685 229 1 0.7 130.87201865336726 56.890477478758854 16.00028204624113 -1 1 -4
687 229 2 -0.35 131.41683993456394 56.60214455216994 15.017615319929869 -1 1 -4
661 221 1 0.7 14.13168193866776 59.343497057262745 8.727627009051758 -1 7 4
662 221 2 -0.35 13.742838348289135 60.362664727557984 9.122212769118713 -1 7 4
683 228 2 -0.35 7.799307683938441 61.56062244660836 2.8851901702649525 3 -1 0
682 228 1 0.7 8.885112793374756 61.857451440505635 3.1654040398430956 3 -1 0
684 228 2 -0.35 9.97091790281107 62.1542804344029 3.4456179094212387 3 -1 0
1364 455 2 -0.35 12.517150733556353 71.98867938638585 18.943032124824004 5 1 4
1363 455 1 0.7 12.150204774531979 71.1994207005381 18.1762065971007 5 1 4
1365 455 2 -0.35 11.783258815507603 70.41016201469034 17.40938106937739 5 1 4
1329 443 2 -0.35 32.00156660440773 58.76870902811641 0.17175037008927263 -4 2 -8
260 87 2 -0.35 69.9513689042194 76.39131004414888 17.468865462004715 2 -12 1
259 87 1 0.7 69.12563960761614 76.56704301669156 16.673322219249748 2 -12 1
261 87 2 -0.35 68.29991031101288 76.74277598923423 15.87777897649478 2 -12 1
331 111 1 0.7 101.61949545058258 73.14218331291292 13.438436592307438 -1 4 7
333 111 2 -0.35 101.76191983081381 71.9953460977117 13.538834290212831 -1 4 7
332 111 2 -0.35 101.47707107035134 74.28902052811414 13.338038894402047 -1 4 7
341 114 2 -0.35 141.0535323490498 65.43905093199417 19.1660286044669 9 -1 -5
340 114 1 0.7 140.97856658457454 64.34999463914154 18.77368114983753 9 -1 -5
342 114 2 -0.35 140.90360082009929 63.260938346288924 18.38133369520816 9 -1 -5
323 108 2 -0.35 148.67383017117743 64.72488535064845 4.868353187637751 -5 3 -2
322 108 1 0.7 149.03541060480953 63.65990171613252 4.584329512168024 -5 3 -2
324 108 2 -0.35 149.39699103844163 62.59491808161658 4.300305836698297 -5 3 -2
27 9 2 -0.35 212.36424996056655 76.05762474182549 18.633274463781028 9 -2 -2
25 9 1 0.7 211.29900891095903 75.94603515171673 18.18784290943187 9 -2 -2
26 9 2 -0.35 210.23376786135148 75.83444556160795 17.742411355082705 9 -2 -2
494 165 2 -0.35 35.07814313983985 91.202033038177 15.624195141090825 0 -6 1
493 165 1 0.7 34.857152855499294 90.3889022628358 14.826961400950323 0 -6 1
495 165 2 -0.35 34.636162571158735 89.57577148749459 14.02972766080982 0 -6 1
1314 438 2 -0.35 29.880534555542976 94.8065902554108 1.9358445483775244 -9 -10 6
1312 438 1 0.7 30.193468748882143 93.74940482909639 1.575246205306383 -9 -10 6
1313 438 2 -0.35 30.50640294222131 92.69221940278199 1.2146478622352412 -9 -10 6
1293 431 2 -0.35 78.61467448838116 83.29130197588606 10.579167286208925 1 -4 -4
1292 431 2 -0.35 80.56644790480263 84.2316519296056 9.749274223524344 1 -4 -4
1291 431 1 0.7 79.59056119659189 83.76147695274582 10.164220754866635 1 -4 -4
978 326 2 -0.35 129.21567242559468 86.2232206746487 10.389814230187493 7 0 -4
976 326 1 0.7 129.40753400980475 86.45537911516759 11.510033668958862 7 0 -4
977 326 2 -0.35 129.59939559401482 86.68753755568646 12.63025310773023 7 0 -4
215 72 2 -0.35 176.45753765001388 95.35382252307457 8.883202048458028 1 3 -1
214 72 1 0.7 177.6171296412737 95.38375804310604 8.89029277800281 1 3 -1
216 72 2 -0.35 178.7767216325335 95.41369356313751 8.897383507547593 1 3 -1
640 214 1 0.7 185.0153735044851 90.58848830561907 1.2042604821896696 -8 -1 15
642 214 2 -0.35 184.76118531914022 89.96476472215352 2.148695370288849 -8 -1 15
938 313 2 -0.35 207.48918164085364 86.34871023420476 14.390885474469512 4 -5 4
937 313 1 0.7 208.47573348571575 86.3026634504788 13.782448829365087 4 -5 4
939 313 2 -0.35 209.46228533057786 86.25661666675286 13.174012184260663 4 -5 4
476 159 2 -0.35 9.504767781558312 117.80932320402091 16.59158070904784 8 -1 -3
475 159 1 0.7 9.65641376708306 116.94069764280364 15.837861179332547 8 -1 -3
477 159 2 -0.35 9.808059752607807 116.07207208158637 15.084141649617253 8 -1 -3
211 71 1 0.7 49.733033830442494 118.01738372990972 17.811473659979455 11 3 -4
212 71 2 -0.35 48.98380696109609 117.34051141087592 17.240419405135917 11 3 -4
633 211 2 -0.35 167.64235023027254 106.1086337463545 0.007222742942210036 -2 6 5
1418 473 2 -0.35 178.35489453570403 102.72366064066658 19.216270368084576 2 7 0
1417 473 1 0.7 177.99395404995138 102.90432916186586 18.12875905724959 2 7 0
1419 473 2 -0.35 177.63301356419873 103.08499768306514 17.041247746414605 2 7 0
213 71 2 -0.35 50.482260699788895 118.69425604894353 18.382527914822994 11 3 -4
304 102 1 0.7 54.19683488393731 135.67481807626638 18.762288351515668 -5 5 -7
305 102 2 -0.35 54.851889818051525 134.88732147379955 19.306670693617907 -5 5 -7
306 102 2 -0.35 53.5417799498231 136.4623146787332 18.21790600941343 -5 5 -7
652 218 1 0.7 100.55959734826028 138.0933425593295 0.8439345516220238 6 -4 6
958 320 1 0.7 116.06202568107499 129.96931001014212 1.8124792083660826 -6 0 -3
960 320 2 -0.35 115.86808747728057 131.05472022322033 2.1728576794958885 -6 0 -3
959 320 2 -0.35 116.2559638848694 128.88389979706392 1.4521007372362764 -6 0 -3
653 218 2 -0.35 101.03132922876948 137.13178791582703 1.289447402695047 6 -4 6
1058 353 2 -0.35 141.2556679971124 122.10734667912362 3.0090414938495393 -10 5 -1
1057 353 1 0.7 140.89235384720314 121.2481893379305 2.319511587646731 -10 5 -1
1059 353 2 -0.35 140.5290396972939 120.38903199673739 1.6299816814439232 -10 5 -1
431 144 2 -0.35 147.81150393026437 128.80038980991003 10.739933337204892 0 -9 -16
430 144 1 0.7 147.60272311953827 129.84393618815773 10.278390782808133 0 -9 -16
432 144 2 -0.35 147.39394230881217 130.88748256640542 9.816848228411374 0 -9 -16
1073 358 2 -0.35 167.99505849787354 122.91727904740547 19.94365889317153 -1 -2 -1
1074 358 2 -0.35 169.68992062874983 122.0215145477353 18.63696523417825 -1 -2 -1
1072 358 1 0.7 168.8424895633117 122.46939679757038 19.29031206367489 -1 -2 -1
1155 385 2 -0.35 4.305479452598238 151.6908938335166 13.567129109800923 -2 1 2
1153 385 1 0.7 4.956457580744773 152.11436168644656 12.705443288743732 -2 1 2
1154 385 2 -0.35 5.607435708891306 152.53782953937647 11.843757467686538 -2 1 2
860 287 2 -0.35 31.588471412206072 148.94462471048905 214.75538607328423 0 -2 -3
351 117 2 -0.35 34.73249235821045 153.09756718877443 3.0470945497369892 4 -5 5
349 117 1 0.7 35.16170651765028 153.82030149686045 2.2477008261870846 4 -5 5
350 117 2 -0.35 35.59092067709011 154.5430358049465 1.4483071026371799 4 -5 5
807 269 2 -0.35 55.440552251532374 154.65831530666713 18.745036256470286 -3 0 -4
654 218 2 -0.35 100.08786546775109 139.05489720283197 0.3984217005490005 6 -4 6
962 321 2 -0.35 116.8804233354434 155.23112116689185 15.889017013506235 3 -1 -1
961 321 1 0.7 116.79856438677508 156.22977420779804 16.47347506710098 3 -1 -1
919 307 1 0.7 11.435858755189706 161.22938092983827 11.726080236500419 -6 1 -5
920 307 2 -0.35 11.602907041997973 161.53214880838627 10.618819435427051 -6 1 -5
921 307 2 -0.35 11.268810468381439 160.92661305129027 12.833341037573787 -6 1 -5
1010 337 2 -0.35 12.54959432416551 168.14851414029633 7.627815471376867 -1 0 -7
1009 337 1 0.7 12.616546309579673 168.82657651823854 8.56661728393801 -1 0 -7
1011 337 2 -0.35 12.683498294993836 169.50463889618078 9.505419096499153 -1 0 -7
741 247 2 -0.35 18.133925241830127 166.65433617521725 3.8036959718975547 4 4 3
739 247 1 0.7 18.175504951771618 166.41971751458348 2.668431592202949 4 4 3
740 247 2 -0.35 18.21708466171311 166.1850988539497 1.5331672125083433 4 4 3
929 310 2 -0.35 18.750498205791644 172.65127610157253 9.832758379293894 -4 -6 -6
928 310 1 0.7 18.007671850961422 173.20435322998495 10.531267288756382 -4 -6 -6
930 310 2 -0.35 17.264845496131198 173.7574303583974 11.22977619821887 -4 -6 -6
1162 388 1 0.7 96.95908482122186 166.24348110210946 13.927155745734169 -1 -7 0
1164 388 2 -0.35 96.47556267164013 165.24523996160454 14.26674513936309 -1 -7 0
1163 388 2 -0.35 97.4426069708036 167.24172224261437 13.587566352105247 -1 -7 0
963 321 2 -0.35 116.71670543810679 157.22842724870424 17.057933120695726 3 -1 -1
525 175 2 -0.35 121.73826673619887 168.82961582384436 0.888149443523575 1 -2 6
402 134 2 -0.35 188.84125188568623 166.56843503566597 0.28979030194162003 -1 2 -4
162 54 2 -0.35 202.70489688105096 172.21856037527724 4.431496746410789 10 -5 7
161 54 2 -0.35 204.78435547447378 171.30182652625686 4.898241867749111 10 -5 7
160 54 1 0.7 203.74462617776237 171.76019345076705 4.66486930707995 10 -5 7
777 259 2 -0.35 5.539251974230096 188.01935543983953 0.9502768247477351 -1 1 2
775 259 1 0.7 6.032195191679279 188.39318250391167 215.96902236716016 -1 1 1
629 210 2 -0.35 11.161906954157034 179.4311756094818 2.8190283759102313 3 -1 5
628 210 1 0.7 10.303609592366739 179.92916785016814 3.419802349181988 3 -1 5
630 210 2 -0.35 9.445312230576445 180.42716009085447 4.020576322453745 3 -1 5
1151 384 2 -0.35 51.95756585765643 189.57809946266883 4.2885305030491665 5 8 9
1150 384 1 0.7 52.09756292156595 188.7601465301983 3.4780036235709124 5 8 9
1152 384 2 -0.35 52.23755998547548 187.9421935977278 2.6674767440926583 5 8 9
603 201 2 -0.35 132.22320781198732 181.8095120304945 15.36054397448427 -3 1 4
601 201 1 0.7 131.11281104229073 181.5152091012293 15.521804011924415 -3 1 4
602 201 2 -0.35 130.0024142725941 181.22090617196406 15.683064049364562 -3 1 4
1180 394 1 0.7 46.35045595672721 215.05609492295895 7.258393587773201 2 -9 5
1181 394 2 -0.35 46.68502132065553 214.42625684156397 6.343532938010721 2 -9 5
79 27 1 0.7 109.60530294138488 214.20965027163084 2.5657703581561853 -1 -4 -3
81 27 2 -0.35 110.1516328643419 213.33408422509265 3.0954001471886774 -1 -4 -3
80 27 2 -0.35 109.05897301842784 215.085216318169 2.0361405691236927 -1 -4 -3
191 64 2 -0.35 27.502116554445635 19.65865257475221 27.743352081457665 5 -4 0
1288 430 1 0.7 104.71032117005949 16.317154028467304 29.215639027933403 5 1 -1
1289 430 2 -0.35 104.90950524073605 16.02419608770896 30.32022100811187 5 1 -1
1290 430 2 -0.35 104.51113709938292 16.610111969225642 28.111057047754933 5 1 -1
453 151 2 -0.35 122.75372526353375 7.160547319247971 25.251097130017463 -9 9 7
472 158 1 0.7 121.16530759073646 2.0852176341586834 36.01776197964204 -8 0 -1
473 158 2 -0.35 120.3894270202357 1.9080974510587436 36.86170379105765 -8 0 -1
474 158 2 -0.35 121.94118816123724 2.2623378172586235 35.17382016822643 -8 0 -1
451 151 1 0.7 122.38763641777601 6.324458438092876 24.53518209328503 -9 9 7
452 151 2 -0.35 122.02154757201826 5.48836955693778 23.819267056552597 -9 9 7
446 149 2 -0.35 149.65695775829363 11.690276350828594 24.547831166858145 -8 6 4
447 149 2 -0.35 149.02174583886304 12.037221867184112 26.75203955675304 -8 6 4
445 149 1 0.7 149.33935179857835 11.863749109006353 25.649935361805593 -8 6 4
677 226 2 -0.35 153.41248989231897 13.760629480568465 36.939306201889444 0 -4 -7
676 226 1 0.7 152.77110118631316 12.957621925382735 37.47726474501551 0 -4 -7
678 226 2 -0.35 152.12971248030738 12.154614370197008 38.01522328814158 0 -4 -7
651 217 2 -0.35 167.07235680019042 11.074887596435502 33.22536772330943 -10 3 -4
649 217 1 0.7 166.36001008264137 10.997032180101876 34.13756325505945 -10 3 -4
650 217 2 -0.35 165.6476633650923 10.919176763768247 35.04975878680946 -10 3 -4
190 64 1 0.7 26.708763712376832 20.002304502009718 26.96998630714791 5 -4 0
192 64 2 -0.35 25.91541087030803 20.345956429267225 26.196620532838153 5 -4 0
62 21 2 -0.35 98.37434499324881 31.311937013160122 38.74646018083122 -2 2 -1
765 255 2 -0.35 122.60278460713091 28.38969224298221 32.99879686666766 6 3 1
763 255 1 0.7 122.13044556728555 29.196626038602023 33.68534889013154 6 3 1
764 255 2 -0.35 121.65810652744018 30.003559834221836 34.37190091359542 6 3 1
194 65 2 -0.35 195.6709853697662 21.660463792335108 30.468722258873072 11 6 8
193 65 1 0.7 195.74240255111135 22.800360978770435 30.671537422418325 11 6 8
195 65 2 -0.35 195.8138197324565 23.94025816520576 30.874352585963575 11 6 8
362 121 2 -0.35 3.580945809587196 56.96085252330126 35.542300124868646 8 5 1
361 121 1 0.7 2.6443094846544306 57.58381681188661 35.825545407198405 8 5 1
363 121 2 -0.35 1.7076731597216717 58.20678110047194 36.10879068952816 8 5 1
384 128 2 -0.35 55.73492494463013 42.44301152054134 37.453963272285996 4 -5 0
383 128 2 -0.35 56.223192368730444 44.06599484760078 35.8696905550257 4 -5 0
382 128 1 0.7 55.97905865668029 43.25450318407106 36.661826913655844 4 -5 0
723 241 2 -0.35 100.40454380690521 53.4804674126487 21.000058178034376 0 3 1
1220 407 2 -0.35 211.33255828744265 59.438899524395026 36.10149256478691 -2 4 -3
1219 407 1 0.7 211.0460238519953 58.931456032562735 35.098497490073505 -2 4 -3
1221 407 2 -0.35 210.75948941654792 58.42401254073044 34.09550241536011 -2 4 -3
429 143 2 -0.35 204.86906902576604 52.77758394425059 25.58075732042122 8 -6 -5
427 143 1 0.7 204.8272590587938 53.13767683889664 24.47885667431634 8 -6 -5
428 143 2 -0.35 204.78544909182156 53.49776973354269 23.37695602821146 8 -6 -5
486 162 2 -0.35 118.79299483645791 72.80598751457889 30.648745041444055 0 -11 9
484 162 1 0.7 118.67349182220282 71.75686991896576 31.129027562632906 0 -11 9
485 162 2 -0.35 118.55398880794775 70.70775232335264 31.609310083821754 0 -11 9
1460 487 2 -0.35 168.2676538602544 68.43249276613142 31.673820027660224 -10 -9 -1
1459 487 1 0.7 167.95327699454296 69.31505553737266 30.98982431047936 -10 -9 -1
1461 487 2 -0.35 167.63890012883152 70.19761830861388 30.3058285932985 -10 -9 -1
671 224 2 -0.35 19.93029416478881 88.63248022734912 29.884478173356776 4 -5 2
670 224 1 0.7 20.456042916777353 89.66402082327625 29.955978164524673 4 -5 2
672 224 2 -0.35 20.9817916687659 90.69556141920336 30.02747815569257 4 -5 2
675 225 2 -0.35 54.46423926664373 97.01061913468118 34.644071177167625 -2 -3 2
673 225 1 0.7 54.065234854439055 95.93274602337421 34.8008673345265 -2 -3 2
674 225 2 -0.35 53.66623044223438 94.85487291206722 34.95766349188538 -2 -3 2
729 243 2 -0.35 135.27400719924455 86.3974601024547 27.437330619360345 -3 4 2
728 243 2 -0.35 136.8391342133496 88.10292593558809 27.59277746471855 -3 4 2
727 243 1 0.7 136.0565707062971 87.2501930190214 27.51505404203945 -3 4 2
1103 368 2 -0.35 159.15581755808907 81.48098694095285 28.795850761546106 -7 -1 -3
1102 368 1 0.7 159.25560045645383 82.342222608145 28.025190980092486 -7 -1 -3
1104 368 2 -0.35 159.3553833548186 83.20345827533714 27.25453119863887 -7 -1 -3
818 273 2 -0.35 207.3632111034688 93.13451048161902 34.01512502033171 -3 5 7
817 273 1 0.7 207.91289191523032 92.40391471013149 33.301205680444504 -3 5 7
819 273 2 -0.35 208.4625727269918 91.67331893864396 32.587286340557306 -3 5 7
1434 478 2 -0.35 7.8772972672553045 116.46563825374237 36.67071794578964 4 -4 -6
1432 478 1 0.7 8.844845014068477 116.6697522374269 37.277173912288895 4 -4 -6
1433 478 2 -0.35 9.81239276088165 116.87386622111146 37.88362987878815 4 -4 -6
108 36 2 -0.35 59.57556856850345 115.25602041359174 35.760479785389236 -2 5 0
106 36 1 0.7 59.91674100759165 114.52512237303397 34.926819530180694 -2 5 0
107 36 2 -0.35 60.257913446679844 113.79422433247618 34.09315927497215 -2 5 0
1131 377 2 -0.35 79.80590005007193 117.47657025615753 36.89908574697722 -3 -9 -8
379 127 1 0.7 102.17486193273473 104.67641476850406 38.00835198084305 4 -2 2
380 127 2 -0.35 102.43980595367542 103.71101473726301 37.42234221518438 4 -2 2
381 127 2 -0.35 101.90991791179403 105.64181479974509 38.594361746501725 4 -2 2
134 45 2 -0.35 141.6035526510549 109.40861588805605 39.267548156101306 8 1 0
132 44 2 -0.35 160.110934852476 107.82095752866796 38.13454518845925 -2 -2 4
130 44 1 0.7 160.92159107836673 108.1673587271883 38.88849657488201 -2 -2 4
131 44 2 -0.35 161.73224730425744 108.51375992570864 39.642447961304775 -2 -2 4
413 138 2 -0.35 189.39684048985546 116.85423116257255 34.78277291225174 3 2 -1
165 55 2 -0.35 36.909799428062314 137.13115089705576 30.05904325538002 -4 0 -2
163 55 1 0.7 36.90982480649324 136.69555829168357 28.983934385775353 -4 0 -2
164 55 2 -0.35 36.90985018492417 136.25996568631138 27.90882551617069 -4 0 -2
1130 377 2 -0.35 79.56744312863617 119.40005148020475 38.174138011536904 -3 -9 -8
1129 377 1 0.7 79.68667158935405 118.43831086818113 37.536611879257066 -3 -9 -8
1463 488 2 -0.35 106.86575642339064 123.78138678324989 22.133124648468197 -1 4 5
1464 488 2 -0.35 108.94640913649904 123.49512470235314 21.147559679290158 -1 4 5
1462 488 1 0.7 107.90608277994484 123.63825574280152 21.640342163879176 -1 4 5
837 279 2 -0.35 103.88692728692392 128.3873840785223 26.41676408149591 -7 -12 1
835 279 1 0.7 103.0350350568147 127.85000668190476 25.841346700907092 -7 -12 1
836 279 2 -0.35 102.18314282670549 127.31262928528724 25.265929320318275 -7 -12 1
1050 350 2 -0.35 178.8265244679133 135.99255428873613 23.907271582785796 -6 -2 -8
414 138 2 -0.35 189.56315967972319 119.16631797706273 34.8776016491129 3 2 -1
1048 350 1 0.7 179.10780602313716 135.09747658256506 23.225130404871877 -6 -2 -8
1049 350 2 -0.35 179.38908757836106 134.202398876394 22.542989226957957 -6 -2 -8
412 138 1 0.7 189.4800000847893 118.01027456981764 34.83018728068232 3 2 -1
611 204 2 -0.35 32.016911096432906 143.34428776408183 34.36253059343535 -3 3 -6
610 204 1 0.7 31.447138741915925 143.5160907477696 35.35824300112368 -3 3 -6
612 204 2 -0.35 30.877366387398943 143.68789373145736 36.35395540881201 -3 3 -6
806 269 2 -0.35 55.83114599246779 156.15870183878957 20.470920604788216 -3 0 -4
805 269 1 0.7 55.63584912200008 155.40850857272835 19.60797843062925 -3 0 -4
1078 360 1 0.7 112.66409080345004 148.18990069360203 29.12857861958281 -5 -1 -4
1079 360 2 -0.35 113.17870591505759 148.6171127906803 28.180812239605665 -5 -1 -4
1080 360 2 -0.35 112.1494756918425 147.76268859652376 30.076344999559954 -5 -1 -4
892 298 1 0.7 154.68997102283248 156.8553974496607 36.14620471437785 9 11 3
894 298 2 -0.35 155.83389859600013 156.74043698526583 35.99188751192377 9 11 3
893 298 2 -0.35 153.54604344966486 156.97035791405557 36.30052191683193 9 11 3
1454 485 2 -0.35 211.09317474594556 152.40848944741907 26.544416586258347 2 2 0
1453 485 1 0.7 210.68349898509538 152.867108682089 27.527998900332896 2 2 0
1455 485 2 -0.35 210.2738232242452 153.32572791675892 28.511581214407446 2 2 0
38 13 2 -0.35 12.973330008358795 172.06342949477866 24.787929551805217 1 -3 -4
37 13 1 0.7 13.245975108764293 173.01467850879277 25.393231098606957 1 -3 -4
39 13 2 -0.35 13.518620209169793 173.96592752280688 25.9985326454087 1 -3 -4
385 129 1 0.7 61.45552954275322 171.29353437310556 34.80525308557917 4 -1 6
386 129 2 -0.35 61.63691062237362 172.34077809578332 35.26999117231966 4 -1 6
387 129 2 -0.35 61.274148463132825 170.2462906504278 34.34051499883868 4 -1 6
707 236 2 -0.35 91.79804018729008 167.28924004007354 29.623752852113984 4 -1 -3
706 236 1 0.7 91.85048410334886 166.1856608251939 29.977253279488238 4 -1 -3
708 236 2 -0.35 91.90292801940763 165.0820816103143 30.330753706862488 4 -1 -3
1294 432 1 0.7 190.41614291571727 176.92285830328927 34.23125952810712 2 -4 3
1295 432 2 -0.35 189.88348687993386 176.5186479398136 33.28337159717821 2 -4 3
1256 419 2 -0.35 193.51604657551832 167.6306455602231 36.62734305553465 4 1 -1
1255 419 1 0.7 194.20033728521662 168.4512425705605 37.07896986081392 4 1 -1
788 263 2 -0.35 196.39271936350735 167.27546528106504 35.30576272546122 -2 -4 -15
1257 419 2 -0.35 194.8846279949149 169.27183958089796 37.53059666609318 4 1 -1
789 263 2 -0.35 197.7397483770156 167.4245231221202 33.42276123932801 -2 -4 -15
787 263 1 0.7 197.06623387026147 167.3499942015926 34.364261982394616 -2 -4 -15
638 213 2 -0.35 8.33200181938882 190.3518325418092 20.17233682360111 -2 -8 1
637 213 1 0.7 8.126793048944421 189.27795318510238 20.55998677880835 -2 -8 1
639 213 2 -0.35 7.921584278500022 188.20407382839556 20.947636734015592 -2 -8 1
794 265 2 -0.35 46.661155821514654 191.15692954213804 29.221355137692367 2 8 2
795 265 2 -0.35 45.28485506427957 192.52850485240876 30.489021258518058 2 8 2
793 265 1 0.7 45.97300544289711 191.8427171972734 29.855188198105214 2 8 2
1436 479 2 -0.35 52.46439383837095 179.3828155467075 24.047315588411113 0 -3 -4
1435 479 1 0.7 52.90983868359408 179.98954079378834 24.929961250282062 0 -3 -4
1437 479 2 -0.35 53.35528352881722 180.5962660408692 25.81260691215301 0 -3 -4
1041 347 2 -0.35 83.89201812001927 195.45308273428063 33.68317199647244 -3 -5 2
1040 347 2 -0.35 82.32089913000458 195.22184538891938 31.991866462478967 -3 -5 2
1039 347 1 0.7 83.10645862501192 195.3374640616 32.8375192294757 -3 -5 2
1296 432 2 -0.35 190.94879895150066 177.32706866676494 35.179147459036024 2 -4 3
300 100 2 -0.35 187.82750082713125 187.6628353520786 25.994755168660234 5 1 0
299 100 2 -0.35 186.24131356732306 188.469158770493 27.48346350871142 5 1 0
298 100 1 0.7 187.03440719722715 188.0659970612858 26.73910933868583 5 1 0
527 176 2 -0.35 41.033655280861325 205.42581228583617 28.455298263804384 -8 -5 -3
526 176 1 0.7 40.7655342392928 204.71524567077034 27.578482323813784 -8 -5 -3
528 176 2 -0.35 40.49741319772428 204.00467905570454 26.701666383823188 -8 -5 -3
1068 356 2 -0.35 110.58894304799712 212.54463229366033 19.284978731534547 -9 -5 -4
1066 356 1 0.7 111.53419186105928 213.16861808879014 19.535471064512468 -9 -5 -4
1067 356 2 -0.35 112.47944067412145 213.79260388391995 19.78596339749039 -9 -5 -4
1025 342 2 -0.35 50.3493856703011 18.791739975486845 53.713952902128256 3 4 4
1024 342 1 0.7 50.9765936982132 19.118410366450533 52.79444404116518 3 4 4
636 212 2 -0.35 70.01525870770787 11.758187926931063 55.44791992397858 4 -6 1
634 212 1 0.7 69.51021599936448 11.243421912067715 54.53932330683165 4 -6 1
635 212 2 -0.35 69.00517329102108 10.728655897204368 53.630726689684714 4 -6 1
370 124 1 0.7 83.1411277224741 13.710380882796679 57.97903499880995 2 -8 13
371 124 2 -0.35 83.96825859195788 13.095861471615853 57.446287011454515 2 -8 13
372 124 2 -0.35 82.3139968529903 14.324900293977505 58.511782986165386 2 -8 13
1051 351 1 0.7 126.20553736009502 11.672069756489991 45.836458320077476 -4 4 -5
1053 351 2 -0.35 126.7974879239582 10.780519218984278 46.28404313775557 -4 4 -5
1052 351 2 -0.35 125.61358679623184 12.563620293995706 45.38887350239939 -4 4 -5
912 304 2 -0.35 140.978882368514 4.16865478000389 56.28117306124585 -2 -1 13
910 304 1 0.7 140.98424532695034 4.473967903549245 57.40025980286519 -2 -1 13
911 304 2 -0.35 140.9896082853867 4.779281027094601 58.519346544484534 -2 -1 13
1026 342 2 -0.35 51.6038017261253 19.44508075741422 51.8749351802021 3 4 4
109 37 1 0.7 68.7468269975064 23.54909739113085 44.098209992206186 -5 -4 1
110 37 2 -0.35 69.22492745394301 24.584680279361056 44.30936878354508 -5 -4 1
111 37 2 -0.35 68.2687265410698 22.513514502900644 43.88705120086729 -5 -4 1
1310 437 2 -0.35 85.82846379181741 37.09716568324558 57.32675992047284 -2 4 -6
1309 437 1 0.7 86.39593826795512 36.123225474530706 57.60064527747608 -2 4 -6
1311 437 2 -0.35 86.96341274409282 35.149285265815834 57.87453063447932 -2 4 -6
699 233 2 -0.35 103.16617288947992 26.406275112575734 53.83968815855841 8 -1 -3
697 233 1 0.7 103.12943551889775 25.591688877488103 54.66473338835378 8 -1 -3
698 233 2 -0.35 103.09269814831559 24.77710264240047 55.489778618149145 8 -1 -3
590 197 2 -0.35 103.23460096682899 20.846764509151168 53.97311437872637 5 -2 -2
589 197 1 0.7 103.50545290828337 20.703720255088786 52.85428572017771 5 -2 -2
591 197 2 -0.35 103.77630484973776 20.5606760010264 51.73545706162904 5 -2 -2
63 21 2 -0.35 97.83818713565341 31.93150507858952 40.916960161027056 -2 2 -1
61 21 1 0.7 98.10626606445112 31.62172104587482 39.83171017092914 -2 2 -1
83 28 2 -0.35 168.7060395507563 29.901908189903537 41.95680883177382 -1 -1 -4
82 28 1 0.7 167.98567169003795 29.649398113018844 42.83025534205062 -1 -1 -4
84 28 2 -0.35 167.2653038293196 29.39688803613415 43.70370185232741 -1 -1 -4
225 75 2 -0.35 2.958394779876473 58.11803397846282 58.79747720494089 -4 -1 -2
1016 339 2 -0.35 65.76415153836433 43.3716826350386 49.727974581419645 -4 2 -2
1015 339 1 0.7 65.22044464588734 44.39412743857629 49.79571997825189 -4 2 -2
1017 339 2 -0.35 64.67673775341035 45.41657224211397 49.86346537508414 -4 2 -2
245 82 2 -0.35 96.35349841565159 55.16486769294138 47.55778213297372 -1 3 9
244 82 1 0.7 96.49725490593268 55.09421389957774 48.706669469914566 -1 3 9
246 82 2 -0.35 96.64101139621378 55.023560106214106 49.85555680685541 -1 3 9
120 40 2 -0.35 101.64795060431777 54.396795992290336 56.360184968547124 -2 -2 3
118 40 1 0.7 102.07643880720218 54.14791431868218 57.409020404890214 -2 -2 3
119 40 2 -0.35 102.5049270100866 53.89903264507402 58.457855841233304 -2 -2 3
830 277 2 -0.35 170.25623402588752 41.242202080219535 46.490904679343174 -6 -3 2
831 277 2 -0.35 168.54655634469378 40.20583215509706 45.31390017437005 -6 -3 2
829 277 1 0.7 169.40139518529065 40.7240171176583 45.90240242685661 -6 -3 2
1146 382 2 -0.35 205.992370653694 44.85826458554302 47.65136816258302 -2 -11 -7
1144 382 1 0.7 205.1042944457679 44.903500129222294 46.90646924695394 -2 -11 -7
1145 382 2 -0.35 204.21621823784182 44.94873567290158 46.16157033132486 -2 -11 -7
717 239 2 -0.35 20.631269348949207 65.59010000327568 49.14600326306708 -1 7 0
715 239 1 0.7 20.04240447709479 64.64310515476855 49.4654385767004 -1 7 0
716 239 2 -0.35 19.453539605240373 63.696110306261424 49.78487389033372 -1 7 0
783 261 2 -0.35 30.047428432259196 61.442038269403675 58.84733596442811 -1 -1 5
781 261 1 0.7 31.037392950698365 60.91671939880466 59.14668582065687 -1 -1 5
555 185 2 -0.35 60.85870099411729 63.135163575066315 60.01954982329488 0 2 -1
553 185 1 0.7 61.416088256771964 63.55089923557513 59.09106541308172 0 2 -1
554 185 2 -0.35 61.97347551942663 63.966634896083946 58.162581002868556 0 2 -1
1149 383 2 -0.35 159.83780882151936 72.22657485750076 41.765464157830095 -3 -1 -3