LAMMPS (29 Aug 2024 - Update 1)
  using 1 OpenMP thread(s) per MPI task
package gpu 1 gpuID 0
# GCMC for CO2 molecular fluid, rigid/small/nvt dynamics
# Rigid CO2 TraPPE model
# [Potoff and J.I. Siepmann, Vapor-liquid equilibria of
# mixtures containing alkanes, carbon dioxide and
# nitrogen AIChE J., 47,1676-1682 (2001)].

# global model settings

units           real
atom_style      full
boundary        p p p
pair_style      lj/cut/coul/long  12
pair_modify     mix arithmetic shift yes
kspace_style    pppm 1.0e-4
bond_style      harmonic
angle_style     harmonic
neigh_modify    one 4000

# box, start molecules on simple cubic lattice
region          mbox block 0 ${lbox} 0 ${lbox} 0 ${lbox} units box
region          mbox block 0 216 0 ${lbox} 0 ${lbox} units box
region          mbox block 0 216 0 216 0 ${lbox} units box
region          mbox block 0 216 0 216 0 216 units box
create_box      2 mbox                                       bond/types 1                                angle/types 1                               extra/bond/per/atom 2                       extra/angle/per/atom 1                      extra/special/per/atom 2
Created orthogonal box = (0 0 0) to (216 216 216)
  1 by 1 by 1 MPI processor grid
molecule        co2mol ../CO2.txt
Read molecule template co2mol:
# CO2 molecule file. TraPPE model.
  1 molecules
  0 fragments
  3 atoms with max type 2
  2 bonds with max type 1
  1 angles with max type 1
  0 dihedrals with max type 0
  0 impropers with max type 0
create_atoms   	0 random ${nmols} 34578 mbox mol co2mol 464563 overlap 1.2
create_atoms   	0 random 500 34578 mbox mol co2mol 464563 overlap 1.2
Created 1500 atoms
  using lattice units in orthogonal box = (0 0 0) to (216 216 216)
  create_atoms CPU = 0.013 seconds

# rigid CO2 TraPPE model

pair_coeff      1   1  0.053649   2.800
pair_coeff      2   2  0.156973   3.050
bond_coeff      1       0       1.16
angle_coeff     1       0       180

# masses

mass 1 12.0107
mass 2 15.9994

write_data init_conf.data  pair ij
System init for write_data ...
PPPM initialization ...
  using 12-bit tables for long-range coulomb (src/kspace.cpp:342)
  G vector (1/distance) = 0.14624004
  grid = 36 36 36
  stencil order = 5
  estimated absolute RMS force accuracy = 0.037261173
  estimated relative force accuracy = 0.00011221091
  using double precision FFTW3
  3d grid and FFT values/proc = 68921 46656
Generated 1 of 1 mixed pair_coeff terms from arithmetic mixing rule

# MD settings

group           co2 type 1 2
1500 atoms in group co2
velocity       	all create 300 54654
timestep        0.25

# rigid constraints with thermostat
fix             myrigidnvt co2 rigid/nvt molecule temp 300 300 $(100*dt)
fix             myrigidnvt co2 rigid/nvt molecule temp 300 300 25
  500 rigid bodies with 1500 atoms

thermo 1000
thermo_style custom step temp density press ke pe etotal


variable    mvol equal vol
variable    mden equal density
variable	mtmp equal temp
variable    mpre equal press

fix mydat all ave/time 1 4000 4000 v_mtmp v_mden v_mpre file statistics.dat ## every 1ps

run 4000000 ## 1ns

CITE-CITE-CITE-CITE-CITE-CITE-CITE-CITE-CITE-CITE-CITE-CITE-CITE

Your simulation uses code contributions which should be cited:

- GPU package (short-range, long-range and three-body potentials): doi:10.1016/j.cpc.2010.12.021, doi:10.1016/j.cpc.2011.10.012, doi:10.1016/j.cpc.2013.08.002, doi:10.1016/j.commatsci.2014.10.068, doi:10.1016/j.cpc.2016.10.020, doi:10.3233/APC200086

@Article{Brown11,
 author = {W. M. Brown and P. Wang and S. J. Plimpton and A. N. Tharrington},
 title = {Implementing Molecular Dynamics on Hybrid High Performance Computers---Short Range Forces},
 journal = {Comput.\ Phys.\ Commun.},
 year =    2011,
 volume =  182,
 pages =   {898--911},
 doi =     {10.1016/j.cpc.2010.12.021}
}

@Article{Brown12,
 author = {W. M. Brown and A. Kohlmeyer and S. J. Plimpton and A. N. Tharrington},
 title = {Implementing Molecular Dynamics on Hybrid High Performance Computers - Particle-Particle Particle-Mesh},
 journal = {Comput.\ Phys.\ Commun.},
 year =    2012,
 volume =  183,
 doi =     {10.1016/j.cpc.2011.10.012},
 pages =   {449--459}
}

@Article{Brown13,
 author = {W. M. Brown and Y. Masako},
 title = {Implementing Molecular Dynamics on Hybrid High Performance Computers---Three-Body Potentials},
 journal = {Comput.\ Phys.\ Commun.},
 year =    2013,
 volume =  184,
 pages =   {2785--2793},
 doi =     {10.1016/j.cpc.2013.08.002},
}

@Article{Trung15,
 author = {T. D. Nguyen and S. J. Plimpton},
 title = {Accelerating Dissipative Particle Dynamics Simulations for Soft Matter Systems},
 journal = {Comput.\ Mater.\ Sci.},
 year =    2015,
 doi =     {10.1016/j.commatsci.2014.10.068},
 volume =  100,
 pages =   {173--180}
}

@Article{Trung17,
 author = {T. D. Nguyen},
 title = {{GPU}-Accelerated {T}ersoff Potentials for Massively Parallel
    Molecular Dynamics Simulations},
 journal = {Comput.\ Phys.\ Commun.},
 year =    2017,
 doi =     {10.1016/j.cpc.2016.10.020},
 volume =  212,
 pages =   {113--122}
}

@inproceedings{Nikolskiy19,
 author = {V. Nikolskiy and V. Stegailov},
 title = {{GPU} Acceleration of Four-Site Water Models in {LAMMPS}},
 booktitle = {Proceedings of the International Conference on Parallel
    Computing (ParCo 2019), Prague, Czech Republic},
 doi =     {10.3233/APC200086},
 year =    2019
}

CITE-CITE-CITE-CITE-CITE-CITE-CITE-CITE-CITE-CITE-CITE-CITE-CITE

PPPM initialization ...
  using 12-bit tables for long-range coulomb (src/kspace.cpp:342)
  G vector (1/distance) = 0.14624004
  grid = 36 36 36
  stencil order = 5
  estimated absolute RMS force accuracy = 0.037261173
  estimated relative force accuracy = 0.00011221091
  using double precision FFTW3
  3d grid and FFT values/proc = 68921 46656
Generated 1 of 1 mixed pair_coeff terms from arithmetic mixing rule
Per MPI rank memory allocation (min/avg/max) = 14 | 14 | 14 Mbytes
   Step          Temp         Density         Press          KinEng         PotEng         TotEng    
         0   306.91746      0.0036258033   22.314447      761.47069      1167.3129      1928.7836    
      1000   293.86867      0.0036258033   0.2423047      729.09627     -3.0563968      726.03988    
      2000   296.73031      0.0036258033   2.2358577      736.19607     -3.6326165      732.56345    
      3000   299.99552      0.0036258033   4.6865831      744.29716     -2.3961953      741.90097    
      4000   319.89242      0.0036258033  -2.2973479      793.6619      -3.5496388      790.11226    
      5000   290.28011      0.0036258033   0.64536342     720.19296     -4.144556       716.0484     
      6000   297.56424      0.0036258033   3.4773019      738.26507     -4.2211454      734.04393    
      7000   312.1322       0.0036258033  -2.0679689      774.40858     -5.8334004      768.57518    
      8000   303.0788       0.0036258033   1.4943638      751.94687     -8.2056867      743.74118    
      9000   298.94292      0.0036258033   3.9019403      741.68562     -7.649587       734.03603    
     10000   305.06414      0.0036258033   2.4395392      756.87254     -6.2469656      750.62557    
     11000   297.92416      0.0036258033   1.6969719      739.15806     -7.6445029      731.51356    
     12000   297.19448      0.0036258033   0.048464326    737.34771     -8.5191376      728.82857    
     13000   310.91231      0.0036258033   2.9104824      771.382       -8.7033913      762.67861    
     14000   316.61569      0.0036258033   2.0966541      785.53226     -8.4816708      777.05059    
     15000   297.65531      0.0036258033   0.95445085     738.49102     -8.2404262      730.25059    
     16000   288.36851      0.0036258033   3.000966       715.45021     -9.2937321      706.15648    
     17000   318.20773      0.0036258033   1.2987652      789.48215     -8.4879593      780.99419    
     18000   309.97973      0.0036258033   1.6878168      769.06826     -9.528972       759.53928    
     19000   286.68594      0.0036258033   1.8841112      711.27572     -8.6106024      702.66512    
     20000   309.8987       0.0036258033   2.1124352      768.86721     -7.8984141      760.9688     
     21000   303.24009      0.0036258033   2.2099355      752.34703     -8.8163732      743.53066    
     22000   293.14825      0.0036258033   2.0436132      727.30888     -8.0081679      719.30071    
     23000   288.21808      0.0036258033   2.0704787      715.077       -12.788094      702.28891    
     24000   311.98193      0.0036258033   2.9685819      774.03577     -14.686683      759.34908    
     25000   305.49723      0.0036258033   2.2127023      757.94705     -12.036271      745.91077    
     26000   299.45743      0.0036258033   2.0007924      742.96214     -11.765124      731.19702    
     27000   305.42725      0.0036258033   1.8343136      757.77344     -9.7449123      748.02852    
     28000   301.40875      0.0036258033   1.2629967      747.80341     -8.5128002      739.29061    
     29000   286.77349      0.0036258033   2.2389031      711.49293     -8.5786098      702.91432    
     30000   298.2713       0.0036258033   3.0542512      740.01931     -7.6151725      732.40413    
     31000   311.94953      0.0036258033   1.5470614      773.95538     -7.2603153      766.69507    
     32000   303.84436      0.0036258033   1.8132775      753.84624     -6.3840201      747.46222    
     33000   296.20599      0.0036258033   1.8364616      734.89522     -8.510381       726.38484    
     34000   295.42878      0.0036258033  -0.036099406    732.96694     -8.3548422      724.6121     
     35000   310.19909      0.0036258033  -0.099146165    769.61249     -8.6732693      760.93922    
     36000   319.51221      0.0036258033   0.40755377     792.71859     -8.6627798      784.05581    
     37000   305.04304      0.0036258033   2.8518744      756.82018     -10.467166      746.35302    
     38000   285.07183      0.0036258033   2.2802984      707.27106     -8.4599932      698.81107    
     39000   308.74711      0.0036258033   1.7093747      766.01009     -9.3498218      756.66027    
     40000   308.6131       0.0036258033   2.1281278      765.67761     -9.5953393      756.08227    
     41000   290.10752      0.0036258033   1.6264299      719.76475     -7.7190718      712.04568    
     42000   296.14564      0.0036258033   2.3783712      734.74551     -7.6203318      727.12518    
     43000   300.41831      0.0036258033   1.3600953      745.34612     -6.9902566      738.35586    
     44000   312.47068      0.0036258033   2.0223205      775.24836     -7.7049147      767.54345    
     45000   297.96187      0.0036258033   2.0953753      739.25162     -8.908064       730.34355    
     46000   283.92193      0.0036258033   2.3145712      704.41813     -3.9786443      700.43949    
     47000   302.2048       0.0036258033   1.6949089      749.77843     -8.7168255      741.06161    
     48000   318.25617      0.0036258033   2.0539999      789.60233     -8.8376035      780.76473    
     49000   287.73137      0.0036258033   0.97293538     713.86945     -8.7669101      705.10254    
     50000   296.48267      0.0036258033   2.5628898      735.58169     -9.4278928      726.15379    
     51000   311.53193      0.0036258033   3.1905927      772.91932     -10.218292      762.70102    
     52000   299.10264      0.0036258033   2.3888129      742.08189     -8.2751471      733.80674    
     53000   277.5577       0.0036258033   1.690931       688.62831     -11.523264      677.10504    
     54000   292.58243      0.0036258033   1.4011118      725.90507     -12.524428      713.38064    
     55000   300.71699      0.0036258033   1.4558708      746.08714     -12.105858      733.98128    
     56000   309.35514      0.0036258033   2.266213       767.51864     -11.923424      755.59522    
     57000   301.06485      0.0036258033   1.3660854      746.9502      -14.31611       732.63409    
     58000   307.99577      0.0036258033   2.516766       764.14601     -11.367715      752.77829    
     59000   284.78819      0.0036258033   2.9370976      706.56736     -13.323562      693.2438     
     60000   295.71572      0.0036258033   1.5140795      733.67884     -15.107197      718.57165    
     61000   317.42756      0.0036258033   2.0588479      787.54654     -18.735391      768.81115    
     62000   299.35785      0.0036258033   6.2238715      742.71508     -15.773466      726.94162    
     63000   292.95576      0.0036258033   2.3464145      726.83131     -14.6395        712.19181    
     64000   300.31406      0.0036258033  -0.89127735     745.08747     -15.216769      729.8707     
     65000   304.7518       0.0036258033   1.1915273      756.09761     -13.980938      742.11667    
     66000   305.61299      0.0036258033   5.3199962      758.23425     -10.743225      747.49103    
     67000   296.2187       0.0036258033   2.1717769      734.92677     -11.927019      722.99975    
     68000   293.02059      0.0036258033   0.76213233     726.99215     -12.103806      714.88835    
     69000   303.3904       0.0036258033  -0.009145869    752.71995     -12.633716      740.08623    
     70000   306.01554      0.0036258033   3.305601       759.23299     -13.61632       745.61667    
     71000   301.63327      0.0036258033   1.3343232      748.36046     -15.503883      732.85658    
     72000   302.47116      0.0036258033   4.3629622      750.43929     -12.419109      738.02018    
     73000   290.1988       0.0036258033   2.4355011      719.99122     -12.265327      707.72589    
     74000   303.18447      0.0036258033   1.4858011      752.20902     -12.044961      740.16406    
     75000   319.8893       0.0036258033   2.4178434      793.65418     -12.312185      781.34199    
     76000   289.38847      0.0036258033   4.3870352      717.98078     -11.965774      706.015      
     77000   294.39366      0.0036258033  -0.56973881     730.39879     -12.323848      718.07495    
     78000   310.79775      0.0036258033   1.8043856      771.09778     -12.428773      758.66901    
     79000   293.77962      0.0036258033   2.5553171      728.87533     -11.493515      717.38182    
     80000   288.80487      0.0036258033   2.4194954      716.53285     -6.8521829      709.68067    
     81000   305.11405      0.0036258033   1.5433324      756.99637     -10.031998      746.96438    
     82000   294.09295      0.0036258033   2.105045       729.65272     -7.4284211      722.2243     
     83000   303.27248      0.0036258033   2.6826237      752.42738     -7.973214       744.45417    
     84000   296.01568      0.0036258033   2.494763       734.42305     -8.3864331      726.03662    
     85000   303.31168      0.0036258033   0.87387802     752.52464     -8.7316427      743.793      
     86000   307.58546      0.0036258033   2.44135        763.128       -9.3115866      753.81641    
     87000   293.07594      0.0036258033   2.2032293      727.12949     -11.058454      716.07104    
     88000   296.53088      0.0036258033   1.7423457      735.70128     -10.858965      724.84232    
     89000   301.87723      0.0036258033   2.0363738      748.96574     -12.345547      736.62019    
     90000   299.70579      0.0036258033   2.25691        743.57832     -12.593878      730.98444    
     91000   299.27327      0.0036258033   0.52643159     742.50522     -11.40146       731.10376    
     92000   287.58904      0.0036258033   2.0754625      713.51634     -11.988254      701.52808    
     93000   304.48381      0.0036258033   2.742651       755.43273     -12.858533      742.5742     
     94000   311.73449      0.0036258033   0.33486883     773.42187     -12.38002       761.04185    
     95000   292.82847      0.0036258033   1.7164696      726.5155      -11.295871      715.21963    
     96000   291.2809       0.0036258033   2.7217929      722.67595     -12.773331      709.90262    
     97000   310.85417      0.0036258033   1.791586       771.23777     -10.96359       760.27418    
     98000   300.42737      0.0036258033  -0.27593973     745.3686      -11.774247      733.59435    
     99000   293.65459      0.0036258033   3.5271168      728.56514     -12.843689      715.72145    
    100000   296.14382      0.0036258033   2.6109254      734.74099     -12.445352      722.29564    
    101000   304.11292      0.0036258033  -0.88469081     754.51253     -12.007541      742.50499    
    102000   304.7081       0.0036258033  -0.060672729    755.9892      -13.887099      742.1021     
    103000   305.58227      0.0036258033   4.5048832      758.15803     -12.285761      745.87227    
    104000   306.20759      0.0036258033   0.76885147     759.70947     -14.187515      745.52196    
    105000   290.75837      0.0036258033   0.035714429    721.37953     -13.554974      707.82456    
    106000   300.42519      0.0036258033   3.136104       745.36317     -15.872985      729.49019    
    107000   313.00557      0.0036258033   2.8953924      776.57543     -16.660399      759.91504    
    108000   309.18806      0.0036258033   2.0318657      767.1041      -12.721076      754.38302    
    109000   300.47439      0.0036258033   1.8357987      745.48524     -13.503337      731.9819     
    110000   298.98889      0.0036258033   1.6270278      741.79968     -10.380198      731.41949    
    111000   303.1821       0.0036258033   2.2372048      752.20316     -9.6285291      742.57463    
    112000   314.25584      0.0036258033   3.8969919      779.67741     -12.321466      767.35594    
    113000   292.59253      0.0036258033   2.5188529      725.93013     -11.618582      714.31155    
    114000   298.14692      0.0036258033   1.6758803      739.71074     -8.3301031      731.38063    
    115000   312.24954      0.0036258033   0.75854579     774.69972     -8.7037088      765.99601    
    116000   312.68847      0.0036258033   4.5877958      775.78872     -10.952475      764.83624    
    117000   295.77656      0.0036258033   4.3677054      733.82981     -12.527289      721.30252    
    118000   286.84776      0.0036258033   4.3298633      711.6772      -12.401973      699.27523    
    119000   306.52702      0.0036258033   0.96514695     760.502       -13.367442      747.13456    
    120000   308.34367      0.0036258033   2.560312       765.00915     -15.895377      749.11377    
    121000   288.44243      0.0036258033   2.9617559      715.63362     -15.12562       700.508      
    122000   305.09809      0.0036258033   0.0082953899   756.95676     -15.190778      741.76599    
    123000   307.37858      0.0036258033   3.0648966      762.61472     -14.449028      748.16569    
    124000   293.04865      0.0036258033   2.8077674      727.06177     -13.720904      713.34086    
    125000   304.89512      0.0036258033   1.8697554      756.45319     -13.317778      743.13542    
    126000   299.56701      0.0036258033   1.9400508      743.23402     -14.387695      728.84633    
    127000   293.94881      0.0036258033   2.0731716      729.2951      -15.054153      714.24095    
    128000   307.16589      0.0036258033   0.82819367     762.08703     -14.945763      747.14127    
    129000   305.85801      0.0036258033   1.8523905      758.84215     -16.731436      742.11071    
    130000   289.73177      0.0036258033   2.0517175      718.8325      -15.927472      702.90503    
    131000   311.33316      0.0036258033   3.3411086      772.42615     -14.857241      757.56891    
    132000   299.85567      0.0036258033   0.81251371     743.95018     -14.590293      729.35989    
    133000   298.41867      0.0036258033   3.7849026      740.38495     -18.502414      721.88253    
    134000   312.47721      0.0036258033   3.2293942      775.26456     -16.106993      759.15757    
    135000   311.5488       0.0036258033   2.2079886      772.96117     -14.563811      758.39736    
    136000   296.1324       0.0036258033   0.88917856     734.71264     -14.625154      720.08749    
    137000   301.98966      0.0036258033   2.3450829      749.24468     -16.804793      732.43988    
    138000   305.52774      0.0036258033   2.1757347      758.02275     -17.898326      740.12442    
    139000   291.20938      0.0036258033   4.6032671      722.49851     -13.573451      708.92506    
    140000   284.37338      0.0036258033   3.7558994      705.53819     -12.579263      692.95893    
    141000   301.14252      0.0036258033   1.2599801      747.1429      -7.4827037      739.66019    
    142000   310.48267      0.0036258033   1.7413205      770.31606     -13.523957      756.7921     
    143000   291.81169      0.0036258033   3.1150936      723.99284     -15.447546      708.54529    
    144000   286.13806      0.0036258033  -1.1441859      709.91641     -15.693167      694.22324    
    145000   300.50236      0.0036258033   1.0339067      745.55464     -15.328734      730.22591    
    146000   314.15813      0.0036258033  -0.018246471    779.43497     -15.459301      763.97567    
    147000   303.69307      0.0036258033  -0.20920729     753.47088     -13.036285      740.43459    
    148000   302.965        0.0036258033   4.0642062      751.66452     -13.157133      738.50739    
    149000   297.65897      0.0036258033   2.0992877      738.50012     -13.797186      724.70293    
    150000   310.52461      0.0036258033  -0.067826331    770.42012     -13.685289      756.73483    
    151000   309.39355      0.0036258033   3.0112955      767.61392     -12.887836      754.72608    
    152000   287.73235      0.0036258033   2.2877678      713.87188     -12.85384       701.01804    
    153000   296.56464      0.0036258033   1.2580716      735.78505     -10.36613       725.41892    
    154000   317.54179      0.0036258033   2.0217384      787.82994     -8.3026784      779.52726    
    155000   304.39853      0.0036258033   3.7773464      755.22115     -10.8793        744.34185    
    156000   291.68787      0.0036258033   2.2796336      723.68564     -11.448954      712.23669    
    157000   291.85615      0.0036258033   1.3894798      724.10315     -10.654153      713.44899    
    158000   307.09473      0.0036258033   1.6515567      761.91049     -13.995162      747.91533    
    159000   313.54109      0.0036258033   2.1238339      777.90409     -11.239496      766.66459    
    160000   300.71985      0.0036258033   1.2128903      746.09423     -12.338886      733.75534    
    161000   293.3438       0.0036258033   1.7577631      727.79404     -10.004747      717.7893     
    162000   299.86224      0.0036258033   1.3851255      743.96648     -10.465947      733.50054    
    163000   305.48096      0.0036258033   2.5329792      757.90669     -8.5123429      749.39435    
    164000   296.51603      0.0036258033   2.0666822      735.66444     -8.3260242      727.33841    
    165000   294.07504      0.0036258033   1.2747578      729.60829     -8.0087906      721.5995     
    166000   296.95826      0.0036258033   1.5867065      736.76162     -11.24664       725.51498    
    167000   303.59483      0.0036258033   2.0069043      753.22714     -12.181616      741.04552    
    168000   312.75679      0.0036258033   1.9533761      775.95822     -10.284059      765.67416    
    169000   295.20414      0.0036258033   1.3473877      732.40962     -12.499058      719.91056    
    170000   294.85889      0.0036258033   2.5306833      731.55304     -12.534598      719.01845    
    171000   309.42993      0.0036258033   1.0886959      767.70418     -10.959819      756.74436    
    172000   302.49059      0.0036258033   1.9597949      750.4875      -13.399943      737.08755    
    173000   292.85459      0.0036258033   2.4497357      726.58032     -11.737978      714.84234    
    174000   291.59954      0.0036258033   1.8019981      723.46649     -12.635206      710.83128    
    175000   300.48668      0.0036258033   2.5561472      745.51574     -15.572529      729.94321    
    176000   312.78869      0.0036258033   2.1555007      776.03735     -16.650421      759.38693    
    177000   300.65536      0.0036258033   0.12958519     745.93423     -14.650666      731.28357    
    178000   286.15582      0.0036258033   2.7084887      709.96047     -11.562725      698.39774    
    179000   315.19996      0.0036258033   2.99683        782.01978     -11.27731       770.74247    
    180000   308.63927      0.0036258033   0.79189159     765.74254     -11.413988      754.32855    
    181000   297.23597      0.0036258033   1.1343886      737.45064     -12.265237      725.1854     
    182000   295.83894      0.0036258033   5.2790665      733.98456     -14.446715      719.53785    
    183000   306.27617      0.0036258033   1.9337442      759.87963     -14.000281      745.87935    
    184000   323.15562      0.0036258033  -0.57874388     801.75801     -12.071342      789.68666    
    185000   298.95475      0.0036258033   1.8682838      741.71498     -14.8755        726.83948    
    186000   288.52987      0.0036258033   4.2371053      715.85056     -14.590015      701.26055    
    187000   308.77236      0.0036258033   0.087674846    766.07273     -12.049148      754.02359    
    188000   287.84588      0.0036258033  -0.15030041     714.15356     -11.004467      703.1491     
    189000   294.16904      0.0036258033   4.1761148      729.8415      -9.4807877      720.36071    
    190000   299.08696      0.0036258033   2.4053267      742.043       -9.2090974      732.8339     
    191000   287.15462      0.0036258033  -2.9654763      712.43852     -10.261957      702.17656    
    192000   295.47582      0.0036258033   3.483477       733.08365     -7.752259       725.33139    
    193000   295.97404      0.0036258033  -1.5110773      734.31976     -12.522083      721.79768    
    194000   319.83621      0.0036258033  -0.89123638     793.52246     -14.192612      779.32985    
    195000   296.83378      0.0036258033   3.0936346      736.45278     -15.563532      720.88925    
    196000   293.56661      0.0036258033   6.2440498      728.34685     -14.436044      713.9108     
    197000   293.00232      0.0036258033   0.89966083     726.94683     -12.988425      713.9584     
    198000   303.34414      0.0036258033  -1.5832067      752.60516     -14.290729      738.31443    
    199000   320.49844      0.0036258033   2.8551619      795.16546     -13.541639      781.62382    
    200000   288.29798      0.0036258033   5.0309343      715.27523     -10.276905      704.99832    
    201000   281.02835      0.0036258033   1.531963       697.23909     -13.328017      683.91107    
    202000   309.23374      0.0036258033   1.1543579      767.21742     -13.741358      753.47607    
    203000   314.39683      0.0036258033   2.0302563      780.02721     -14.574776      765.45244    
    204000   294.83508      0.0036258033   2.1728323      731.49395     -13.376712      718.11724    
    205000   289.17014      0.0036258033   1.204891       717.43909     -14.823927      702.61516    
    206000   312.68288      0.0036258033  -2.3585723      775.77483     -12.878588      762.89625    
    207000   314.52372      0.0036258033   1.9125006      780.34201     -10.112701      770.22931    
    208000   289.92077      0.0036258033   3.1147749      719.30141     -11.344493      707.95692    
    209000   291.86122      0.0036258033   1.0564862      724.11573     -11.708697      712.40703    
    210000   307.42394      0.0036258033   0.62742294     762.72727     -9.6280147      753.09926    
    211000   318.60651      0.0036258033   2.9912364      790.47152     -11.690724      778.7808     
    212000   287.54596      0.0036258033   2.6593459      713.40945     -10.900771      702.50868    
    213000   295.45942      0.0036258033   1.4128612      733.04296     -11.294737      721.74822    
    214000   301.68066      0.0036258033   0.25249017     748.47803     -12.643612      735.83441    
    215000   299.6989       0.0036258033   2.1947027      743.56123     -13.128385      730.43285    
    216000   298.55093      0.0036258033   3.0888878      740.71309     -14.021396      726.6917     
    217000   300.61009      0.0036258033   1.4634511      745.82191     -14.1155        731.70642    
    218000   308.7709       0.0036258033   1.8941285      766.0691      -15.528117      750.54099    
    219000   296.67648      0.0036258033   2.1422454      736.06253     -15.903959      720.15857    
    220000   298.3074       0.0036258033   1.9243852      740.10887     -13.428439      726.68043    
    221000   299.79788      0.0036258033   2.1377553      743.8068      -17.115266      726.69153    
    222000   318.15648      0.0036258033   1.8938388      789.35501     -14.743439      774.61157    
    223000   299.51731      0.0036258033   1.524096       743.11071     -12.024304      731.0864     
    224000   295.08469      0.0036258033   2.1354805      732.11325     -12.324515      719.78874    
    225000   306.59781      0.0036258033   2.8460695      760.67761     -13.949924      746.72768    
    226000   302.51253      0.0036258033  -0.01989195     750.54192     -11.477056      739.06487    
    227000   285.69989      0.0036258033   0.97514849     708.8293      -11.45432       697.37498    
    228000   296.96848      0.0036258033   1.7934858      736.787       -12.257756      724.52924    
    229000   321.85887      0.0036258033   4.7486021      798.54074     -13.064438      785.4763     
    230000   298.47921      0.0036258033   1.1676478      740.53514     -11.044839      729.4903     
    231000   285.5342       0.0036258033   0.84153987     708.41822     -11.263667      697.15455    
    232000   301.20666      0.0036258033   2.8934855      747.30203     -11.21641       736.08562    
    233000   302.53268      0.0036258033  -1.3353041      750.59191     -10.598728      739.99318    
    234000   294.12992      0.0036258033  -0.88576227     729.74445     -11.542052      718.2024     
    235000   301.77925      0.0036258033   4.058881       748.72264     -11.938906      736.78373    
    236000   293.96055      0.0036258033   6.4937825      729.32424     -13.510727      715.81351    
    237000   303.37634      0.0036258033  -1.433143       752.68506     -14.811313      737.87375    
    238000   292.28356      0.0036258033   0.049764504    725.16358     -15.266085      709.89749    
    239000   304.26299      0.0036258033   3.6900059      754.88487     -14.989287      739.89558    
    240000   293.25072      0.0036258033  -2.43833        727.56313     -11.043024      716.5201     
    241000   299.86038      0.0036258033   0.30617181     743.96187     -11.59007       732.3718     
    242000   290.88677      0.0036258033   4.33758        721.6981      -15.055045      706.64306    
    243000   293.01265      0.0036258033   2.6214247      726.97246     -13.966173      713.00629    
    244000   304.04272      0.0036258033   2.7143195      754.33836     -13.325744      741.01262    
    245000   311.34111      0.0036258033  -1.2130415      772.44588     -12.599008      759.84687    
    246000   293.56244      0.0036258033   0.73877623     728.3365      -14.499597      713.83691    
    247000   293.92081      0.0036258033   4.0139375      729.22563     -15.017163      714.20846    
    248000   308.72176      0.0036258033   2.6520371      765.94721     -14.543803      751.4034     
    249000   318.57931      0.0036258033   0.56129644     790.40404     -11.723759      778.68028    
    250000   291.11068      0.0036258033  -1.5143655      722.25363     -13.355571      708.89806    
    251000   289.1663       0.0036258033   0.93361148     717.42955     -12.398682      705.03087    
    252000   303.79662      0.0036258033   3.6679313      753.7278      -14.447362      739.28044    
    253000   316.80896      0.0036258033   0.72140439     786.01175     -14.733046      771.27871    
    254000   283.87642      0.0036258033   1.9105745      704.30522     -13.769009      690.53621    
    255000   294.52547      0.0036258033   1.6682397      730.7258      -15.821402      714.9044     
    256000   307.77718      0.0036258033   1.9971611      763.60366     -14.822431      748.78123    
    257000   282.71169      0.0036258033   1.7313822      701.4155      -17.247875      684.16762    
    258000   285.3763       0.0036258033   2.5376245      708.02646     -15.440909      692.58555    
    259000   307.74438      0.0036258033   2.5479359      763.52229     -17.641965      745.88033    
    260000   305.44259      0.0036258033   2.1822475      757.81148     -15.921251      741.89023    
    261000   298.92714      0.0036258033   1.633014       741.64648     -15.206623      726.43986    
    262000   294.03977      0.0036258033   1.2120315      729.52078     -13.522532      715.99825    
    263000   308.80295      0.0036258033   4.1777645      766.14864     -13.196368      752.95227    
    264000   312.67352      0.0036258033   1.7405176      775.75162     -15.427544      760.32407    
    265000   281.89868      0.0036258033   1.8203771      699.39841     -15.426252      683.97215    
    266000   292.82916      0.0036258033   1.7899684      726.51723     -18.785016      707.73221    
    267000   311.96246      0.0036258033   2.0066862      773.98746     -17.96195       756.02551    
    268000   302.31185      0.0036258033   2.110677       750.04403     -15.577936      734.46609    
    269000   295.24493      0.0036258033   2.1792443      732.51082     -16.730422      715.7804     
    270000   297.70092      0.0036258033   2.1404158      738.60419     -14.456429      724.14776    
    271000   295.81165      0.0036258033   0.15591505     733.91687     -13.972046      719.94482    
    272000   302.3555       0.0036258033  -0.40266969     750.15232     -13.418677      736.73364    
    273000   299.7082       0.0036258033   2.6747304      743.58431     -14.03086       729.55345    
    274000   315.22507      0.0036258033   2.5212936      782.08209     -14.065584      768.0165     
    275000   296.62507      0.0036258033   0.94777048     735.93498     -19.41814       716.51684    
    276000   292.74765      0.0036258033   0.80775644     726.31498     -19.852681      706.4623     
    277000   307.9283       0.0036258033   1.7945672      763.97861     -17.12517       746.85344    
    278000   310.57704      0.0036258033   2.6892227      770.55019     -19.636667      750.91352    
    279000   304.84042      0.0036258033   4.6913157      756.3175      -18.226923      738.09057    
    280000   286.47472      0.0036258033   2.4295544      710.75167     -17.655758      693.09592    
    281000   285.15724      0.0036258033   0.081286924    707.48298     -16.775757      690.70723    
    282000   308.79854      0.0036258033   2.0867678      766.1377      -16.573061      749.56464    
    283000   303.70844      0.0036258033   2.0808149      753.50902     -20.837331      732.67169    
    284000   296.4289       0.0036258033   2.0613622      735.44827     -18.722794      716.72548    
    285000   298.29129      0.0036258033   0.048317063    740.06892     -18.94804       721.12088    
    286000   291.76163      0.0036258033   2.6688006      723.86864     -24.461206      699.40744    
    287000   301.71214      0.0036258033   3.5800446      748.55614     -21.720378      726.83576    
    288000   301.16772      0.0036258033   0.65764889     747.20541     -19.765645      727.43976    
    289000   300.86055      0.0036258033   1.3541656      746.44332     -16.340253      730.10306    
    290000   301.99666      0.0036258033   3.6078433      749.26203     -15.984151      733.27788    
    291000   297.72821      0.0036258033   1.6831034      738.6719      -16.0846        722.5873     
    292000   302.13528      0.0036258033   1.3544112      749.60595     -17.623826      731.98213    
    293000   296.81379      0.0036258033  -0.23148686     736.40319     -18.528632      717.87456    
    294000   305.39879      0.0036258033   2.9193772      757.70281     -20.201695      737.50111    
    295000   300.39563      0.0036258033   2.8495141      745.28984     -19.687462      725.60238    
    296000   290.40042      0.0036258033   0.85561118     720.49144     -18.893727      701.59771    
    297000   306.16865      0.0036258033   1.459187       759.61285     -20.851199      738.76166    
    298000   297.1421       0.0036258033   2.3352918      737.21774     -19.002737      718.215      
    299000   302.2887       0.0036258033   1.9465126      749.98659     -16.208045      733.77855    
    300000   299.97419      0.0036258033   2.0279535      744.24424     -16.545631      727.69861    
    301000   298.59373      0.0036258033   1.6241829      740.81928     -16.311073      724.5082     
    302000   295.38093      0.0036258033   1.5573696      732.84822     -16.651363      716.19685    
    303000   304.33522      0.0036258033   2.2607932      755.06407     -16.515833      738.54824    
    304000   307.22978      0.0036258033   2.5094049      762.24556     -18.031088      744.21447    
    305000   289.24661      0.0036258033   1.8940398      717.62882     -16.997686      700.63113    
    306000   307.51946      0.0036258033   2.3778936      762.96426     -15.283966      747.68029    
    307000   312.1815       0.0036258033   0.52483231     774.53092     -16.203759      758.32716    
    308000   288.97607      0.0036258033   1.9483777      716.9576      -18.02735       698.93025    
    309000   300.3042       0.0036258033   2.4942363      745.06301     -17.971705      727.0913     
    310000   309.38279      0.0036258033   2.0340523      767.58722     -14.501744      753.08548    
    311000   301.25325      0.0036258033   0.30593114     747.41762     -15.976504      731.44112    
    312000   295.09656      0.0036258033   1.6948231      732.14271     -16.609579      715.53313    
    313000   288.87203      0.0036258033   3.1133802      716.69946     -16.15874       700.54072    
    314000   305.00288      0.0036258033  -0.087664759    756.72055     -17.270423      739.45013    
    315000   307.4826       0.0036258033   2.7805899      762.8728      -17.676972      745.19583    
    316000   316.18204      0.0036258033   1.0562914      784.45635     -16.460136      767.99621    
    317000   296.56356      0.0036258033   0.34951556     735.78237     -18.919652      716.86271    
    318000   296.52165      0.0036258033   2.2581968      735.67839     -15.543407      720.13499    
    319000   295.46728      0.0036258033   2.5603154      733.06248     -17.192158      715.87032    
    320000   297.27395      0.0036258033   7.2624081      737.54486     -20.0099        717.53497    
    321000   294.72724      0.0036258033   5.5150819      731.22642     -17.628561      713.59786    
    322000   307.98764      0.0036258033   0.86954862     764.12582     -17.365134      746.76069    
    323000   296.70998      0.0036258033  -0.98214408     736.14564     -16.101855      720.04379    
    324000   305.36642      0.0036258033   5.63201        757.6225      -15.172461      742.45004    
    325000   306.80355      0.0036258033  -0.89249127     761.18807     -16.544878      744.64319    
    326000   305.47186      0.0036258033   0.43129062     757.88411     -15.742053      742.14206    
    327000   299.13119      0.0036258033   2.5038394      742.15274     -15.412093      726.74065    
    328000   292.32126      0.0036258033   5.8676518      725.25711     -15.72147       709.53564    
    329000   318.80642      0.0036258033   0.79947598     790.96752     -18.476807      772.49071    
    330000   298.93393      0.0036258033   0.51443167     741.66332     -19.473996      722.18932    
    331000   289.62052      0.0036258033   5.7830964      718.55648     -21.67318       696.8833     
    332000   303.16692      0.0036258033   3.8289899      752.16548     -21.2563        730.90918    
    333000   311.81408      0.0036258033   1.5454978      773.61933     -19.085538      754.5338     
    334000   305.20579      0.0036258033   0.54317105     757.22398     -18.003715      739.22026    
    335000   298.99794      0.0036258033   2.162774       741.82213     -18.946385      722.87575    
    336000   291.55667      0.0036258033   1.8197667      723.36012     -20.017853      703.34227    
    337000   307.72113      0.0036258033   3.1300858      763.46462     -20.074741      743.38987    
    338000   304.42643      0.0036258033   2.3281673      755.29036     -16.745431      738.54493    
    339000   289.52835      0.0036258033   1.5591747      718.32782     -17.159598      701.16822    
    340000   293.68948      0.0036258033   1.1144487      728.65169     -17.860224      710.79147    
    341000   312.58696      0.0036258033   1.2729092      775.53686     -14.601629      760.93523    
    342000   299.79538      0.0036258033   2.0160788      743.80059     -16.475708      727.32488    
    343000   300.746        0.0036258033   2.6215251      746.15911     -20.937413      725.22169    
    344000   289.62019      0.0036258033   1.9876627      718.55568     -19.469794      699.08589    
    345000   296.3817       0.0036258033   2.0064758      735.33116     -21.012981      714.31818    
    346000   304.75303      0.0036258033   1.704527       756.10067     -22.549351      733.55132    
    347000   296.10007      0.0036258033   1.5767984      734.63244     -21.12569       713.50675    
    348000   308.59749      0.0036258033   2.2319986      765.63887     -23.72753       741.91134    
    349000   286.71701      0.0036258033   2.2648477      711.35279     -21.891087      689.46171    
    350000   304.80213      0.0036258033   1.8494962      756.22249     -20.015955      736.20653    
    351000   298.88029      0.0036258033   1.88552        741.53023     -20.418734      721.1115     
    352000   299.04002      0.0036258033   1.9036477      741.92652     -17.813897      724.11262    
    353000   305.84467      0.0036258033   2.1488448      758.80905     -20.047634      738.76141    
    354000   298.53708      0.0036258033   1.9844388      740.67872     -19.184351      721.49437    
    355000   298.15689      0.0036258033   2.4211752      739.73547     -17.858279      721.87719    
    356000   317.5055       0.0036258033   2.0578622      787.7399      -16.218483      771.52141    
    357000   298.2301       0.0036258033   2.7138832      739.91711     -16.684017      723.23309    
    358000   293.63444      0.0036258033   1.8241643      728.51514     -17.65367       710.86147    
    359000   314.02446      0.0036258033   2.1393021      779.10334     -17.4188        761.68454    
    360000   307.29381      0.0036258033   1.677126       762.40441     -16.80581       745.5986     
    361000   279.20169      0.0036258033   1.8959358      692.70709     -14.177189      678.5299     
    362000   291.84887      0.0036258033   2.4721506      724.0851      -14.056149      710.02895    
    363000   308.97092      0.0036258033   1.563442       766.56536     -15.012005      751.55336    
    364000   310.23019      0.0036258033   2.1244131      769.68966     -14.230123      755.45953    
    365000   291.69393      0.0036258033   2.5559305      723.70069     -10.69582       713.00487    
    366000   292.82063      0.0036258033   1.7614405      726.49604     -10.209882      716.28616    
    367000   310.79135      0.0036258033   2.0431816      771.0819      -12.947574      758.13432    
    368000   303.12809      0.0036258033   2.2112497      752.06916     -10.038612      742.03054    
    369000   283.56957      0.0036258033   2.0335619      703.54393     -14.584454      688.95947    
    370000   294.81613      0.0036258033   1.860302       731.44694     -15.943719      715.50322    
    371000   304.27102      0.0036258033   2.4123741      754.90478     -13.905907      740.99887    
    372000   307.31778      0.0036258033   1.7420841      762.46388     -11.19705       751.26683    
    373000   306.27898      0.0036258033   1.8507293      759.88658     -12.109005      747.77758    
    374000   291.97414      0.0036258033   2.3933831      724.39589     -13.424401      710.97149    
    375000   294.02065      0.0036258033   1.9841763      729.47333     -15.181396      714.29193    
    376000   301.50117      0.0036258033   2.0593563      748.03271     -13.213705      734.819      
    377000   304.93474      0.0036258033   1.9807505      756.55151     -15.595309      740.9562     
    378000   292.57138      0.0036258033   1.9586182      725.87766     -15.629295      710.24836    
    379000   302.79386      0.0036258033   2.9415007      751.2399      -13.047199      738.1927     
    380000   308.95279      0.0036258033   2.0270033      766.52038     -11.153378      755.367      
    381000   286.88159      0.0036258033   1.2615091      711.76114     -13.447396      698.31374    
    382000   293.67329      0.0036258033   1.6345477      728.61154     -15.11337       713.49817    
    383000   320.85441      0.0036258033   1.9512104      796.04862     -14.26692       781.7817     
    384000   303.47359      0.0036258033   2.4293202      752.92633     -13.012445      739.91389    
    385000   294.40488      0.0036258033   2.0456742      730.42661     -11.239872      719.18674    
    386000   306.34745      0.0036258033   1.4213396      760.05646     -13.620027      746.43644    
    387000   299.21605      0.0036258033   0.76681636     742.36327     -15.354936      727.00833    
    388000   305.58827      0.0036258033   2.7467867      758.17291     -15.150992      743.02192    
    389000   291.54205      0.0036258033   2.4792727      723.32386     -15.906622      707.41724    
    390000   287.41337      0.0036258033   1.927188       713.0805      -14.01782       699.06268    
    391000   305.47762      0.0036258033   2.0007101      757.8984      -12.361748      745.53665    
    392000   294.70317      0.0036258033   4.3553006      731.16669     -13.727776      717.43892    
    393000   298.40533      0.0036258033   2.0826896      740.35184     -16.920889      723.43095    
    394000   313.03009      0.0036258033   1.6675993      776.63628     -14.90076       761.73552    
    395000   303.49557      0.0036258033   1.6766874      752.98089     -14.355055      738.62583    
    396000   303.02578      0.0036258033   2.2218541      751.81532     -14.340554      737.47476    
    397000   287.04656      0.0036258033   1.7877095      712.17042     -13.146893      699.02353    
    398000   312.74471      0.0036258033   2.1988081      775.92826     -13.199694      762.72857    
    399000   304.23814      0.0036258033   0.93039184     754.82322     -13.693508      741.12971    
    400000   287.34339      0.0036258033   1.744082       712.90687     -14.397419      698.50946    
    401000   305.80171      0.0036258033   0.6777054      758.70247     -16.501117      742.20135    
    402000   303.72174      0.0036258033   2.7703776      753.542       -14.375179      739.16683    
    403000   284.89836      0.0036258033   1.8042229      706.84067     -12.555369      694.28531    
    404000   307.28569      0.0036258033  -0.46732084     762.38427     -12.945343      749.43893    
    405000   304.74428      0.0036258033   2.9609271      756.07897     -12.682755      743.39621    
    406000   297.3237       0.0036258033   0.97956397     737.66828     -11.56214       726.10615    
    407000   307.27856      0.0036258033   0.83904466     762.36659     -13.6231        748.74349    
    408000   304.14441      0.0036258033   2.2974604      754.59067     -14.319139      740.27153    
    409000   286.79589      0.0036258033   2.3455496      711.5485      -12.049837      699.49866    
    410000   293.96021      0.0036258033   1.7655956      729.32337     -13.327415      715.99596    
    411000   309.36717      0.0036258033   1.886118       767.54847     -15.815043      751.73343    
    412000   307.70096      0.0036258033   2.0946023      763.41456     -13.179682      750.23487    
    413000   293.65         0.0036258033   1.9075465      728.55374     -13.96213       714.59161    
    414000   294.65204      0.0036258033   1.8440875      731.03984     -12.82057       718.21927    
    415000   305.51004      0.0036258033   1.9118643      757.97883     -12.692933      745.2859     
    416000   309.28283      0.0036258033   2.1912924      767.33922     -12.52233       754.81689    
    417000   291.53061      0.0036258033   2.1984263      723.29549     -13.965272      709.33022    
    418000   305.66248      0.0036258033   2.2875114      758.35703     -14.016914      744.34012    
    419000   306.59776      0.0036258033   1.8262065      760.67749     -14.397438      746.28005    
    420000   303.6934       0.0036258033   4.0386505      753.4717      -15.329453      738.14225    
    421000   286.1074       0.0036258033   1.7610617      709.84034     -16.186879      693.65346    
    422000   293.08641      0.0036258033   2.2142432      727.15545     -13.253125      713.90233    
    423000   301.11718      0.0036258033   0.55361651     747.08002     -12.943864      734.13616    
    424000   303.62262      0.0036258033   3.8961694      753.2961      -14.703364      738.59274    
    425000   298.98136      0.0036258033   2.9153678      741.78101     -10.823332      730.95767    
    426000   277.5565       0.0036258033   0.13203408     688.62532     -11.619878      677.00544    
    427000   292.24684      0.0036258033   1.2043648      725.07248     -13.330201      711.74228    
    428000   318.56506      0.0036258033   2.6276905      790.36871     -9.988885       780.37982    
    429000   301.08575      0.0036258033   3.247819       747.00204     -11.5288        735.47324    
    430000   297.38208      0.0036258033   0.27083537     737.81314     -12.311754      725.50139    
    431000   305.23406      0.0036258033   6.0154783      757.29412     -12.167856      745.12626    
    432000   293.48955      0.0036258033   3.2591523      728.15566     -13.877297      714.27836    
    433000   304.01194      0.0036258033   0.92600908     754.26201     -14.834528      739.42748    
    434000   309.9693       0.0036258033   3.4308483      769.04238     -15.014918      754.02746    
    435000   292.43652      0.0036258033   4.1268974      725.54308     -13.147679      712.3954     
    436000   293.59797      0.0036258033   2.2588619      728.42465     -11.88692       716.53773    
    437000   314.66023      0.0036258033   0.56020996     780.68071     -12.948457      767.73226    
    438000   295.71901      0.0036258033   6.2031066      733.687       -15.318199      718.36881    
    439000   297.11076      0.0036258033   2.2364206      737.13999     -13.317904      723.82209    
    440000   302.05549      0.0036258033  -2.3885002      749.408       -14.117654      735.29035    
    441000   300.34076      0.0036258033  -3.8166449      745.1537      -11.793836      733.35986    
    442000   309.87091      0.0036258033   3.8943934      768.79828     -13.786401      755.01188    
    443000   309.09182      0.0036258033   6.779349       766.86532     -13.253202      753.61212    
    444000   303.79617      0.0036258033   1.8705865      753.72668     -13.606511      740.12017    
    445000   291.0521       0.0036258033   1.5096165      722.10829     -12.406871      709.70142    
    446000   297.85964      0.0036258033  -6.1781034      738.99797     -13.317376      725.6806     
    447000   311.64496      0.0036258033   0.52937554     773.19973     -14.182673      759.01705    
    448000   304.87141      0.0036258033   2.6030965      756.39437     -13.18499       743.20938    
    449000   287.70622      0.0036258033   6.1233375      713.80706     -13.429738      700.37732    
    450000   292.88988      0.0036258033   0.20323417     726.66786     -14.011334      712.65653    
    451000   300.38699      0.0036258033  -6.6770951      745.26839     -15.37604       729.89235    
    452000   302.34972      0.0036258033   0.84688197     750.138       -15.493833      734.64417    
    453000   299.72385      0.0036258033   5.917293       743.62314     -17.562915      726.06022    
    454000   304.38521      0.0036258033   2.7203276      755.1881      -17.46018       737.72792    
    455000   293.29696      0.0036258033   1.075984       727.67783     -14.920777      712.75705    
    456000   294.07053      0.0036258033   2.0283009      729.59709     -18.249553      711.34754    
    457000   305.40912      0.0036258033   2.805602       757.72844     -18.645362      739.08307    
    458000   308.3503       0.0036258033   2.0338573      765.02561     -14.270269      750.75534    
    459000   304.56289      0.0036258033  -0.1568126      755.62894     -15.347267      740.28167    
    460000   293.63588      0.0036258033   2.6665728      728.51872     -18.224709      710.29401    
    461000   296.38718      0.0036258033   1.9534803      735.34477     -16.360939      718.98383    
    462000   298.78419      0.0036258033   3.1895415      741.29182     -17.603438      723.68838    
    463000   306.06683      0.0036258033  -1.3006956      759.36025     -14.420167      744.94008    
    464000   303.90595      0.0036258033   1.4240661      753.99904     -13.710012      740.28903    
    465000   293.02452      0.0036258033   3.7324101      727.00191     -14.46741       712.5345     
    466000   298.2731       0.0036258033   0.3583549      740.02379     -15.448494      724.5753     
    467000   321.49437      0.0036258033   2.3555166      797.63639     -15.360617      782.27578    
    468000   294.65315      0.0036258033   3.1805009      731.04258     -17.207441      713.83514    
    469000   295.55922      0.0036258033   1.6406637      733.29057     -17.270925      716.01964    
    470000   309.01799      0.0036258033   1.9213816      766.68215     -14.92394       751.75821    
    471000   298.27944      0.0036258033   3.5360609      740.03952     -15.293152      724.74637    
    472000   285.37697      0.0036258033   3.0143097      708.02813     -17.352886      690.67524    
    473000   297.30378      0.0036258033   1.3010629      737.61888     -13.140867      724.47802    
    474000   314.58695      0.0036258033   1.9666347      780.49888     -14.894576      765.60431    
    475000   303.22088      0.0036258033   2.7415318      752.29935     -15.824864      736.47449    
    476000   284.38054      0.0036258033   1.8215657      705.55596     -13.346221      692.20974    
    477000   304.61438      0.0036258033   1.9494612      755.75667     -11.384328      744.37235    
    478000   305.59777      0.0036258033   2.1381748      758.1965      -12.93691       745.25959    
    479000   294.32268      0.0036258033   1.1727371      730.22269     -13.547631      716.67506    
    480000   293.91339      0.0036258033   1.238287       729.20722     -12.692915      716.51431    
    481000   303.51256      0.0036258033   2.5048267      753.02302     -13.553326      739.46969    
    482000   312.09151      0.0036258033   1.1516654      774.30765     -9.6507931      764.65685    
    483000   291.69566      0.0036258033   1.8944042      723.70497     -10.458192      713.24678    
    484000   298.79961      0.0036258033   2.0040522      741.33008     -11.17157       730.15851    
    485000   304.28369      0.0036258033   1.796765       754.93623     -12.614668      742.32156    
    486000   313.4039       0.0036258033   2.2590304      777.56372     -12.647631      764.91609    
    487000   299.27761      0.0036258033   2.2420426      742.516       -14.97276       727.54324    
    488000   298.83631      0.0036258033   1.2901566      741.42111     -14.12594       727.29517    
    489000   300.51216      0.0036258033   0.051960519    745.57895     -12.154702      733.42425    
    490000   299.07395      0.0036258033   1.7200335      742.01072     -12.877723      729.133      
    491000   296.91311      0.0036258033   2.547869       736.6496      -13.142389      723.50721    
    492000   302.00138      0.0036258033   0.54804679     749.27374     -10.261153      739.01259    
    493000   289.62773      0.0036258033   1.9249649      718.57439     -8.7450463      709.82935    
    494000   303.20576      0.0036258033   3.8371889      752.26186     -10.127953      742.1339     
    495000   289.02733      0.0036258033   2.3159656      717.08476     -11.761229      705.32353    
    496000   319.96037      0.0036258033   1.6928161      793.83051     -10.783361      783.04714    
    497000   311.29379      0.0036258033   1.8219328      772.32847     -13.396984      758.93149    
    498000   291.73367      0.0036258033   2.1562694      723.79927     -11.544347      712.25492    
    499000   293.95614      0.0036258033   1.9394529      729.31329     -9.3174312      719.99586    
    500000   309.83616      0.0036258033   2.6203969      768.71205     -9.6994918      759.01256    
    501000   300.04863      0.0036258033   0.65902434     744.42891     -11.807525      732.62139    
    502000   295.33492      0.0036258033   2.020473       732.73408     -10.695389      722.03869    
    503000   307.28999      0.0036258033   3.0700043      762.39494     -11.776733      750.6182     
    504000   310.19921      0.0036258033   2.1320577      769.6128      -14.322418      755.29038    
    505000   295.46804      0.0036258033   2.4926837      733.06436     -13.180747      719.88361    
    506000   292.29207      0.0036258033  -0.99040392     725.18468     -13.001042      712.18364    
    507000   300.75886      0.0036258033   2.0605823      746.19102     -13.028493      733.16253    
    508000   300.19035      0.0036258033   2.3092368      744.78052     -13.461446      731.31908    
    509000   289.41552      0.0036258033   2.19092        718.04788     -13.696068      704.35181    
    510000   300.67015      0.0036258033   1.8831523      745.97092     -11.736781      734.23414    
    511000   306.81232      0.0036258033   2.306092       761.20982     -12.621545      748.58827    
    512000   301.48202      0.0036258033   1.5561897      747.98519     -12.212752      735.77244    
    513000   307.79443      0.0036258033   2.1155663      763.64647     -11.969666      751.67681    
    514000   293.31925      0.0036258033   2.4629806      727.73314     -13.854624      713.87851    
    515000   297.45131      0.0036258033   1.9570723      737.98489     -10.744083      727.24081    
    516000   302.71269      0.0036258033   1.6514503      751.03853     -13.558428      737.4801     
    517000   300.85665      0.0036258033   2.0301487      746.43365     -12.804429      733.62922    
    518000   297.92367      0.0036258033   2.1392723      739.15684     -14.939946      724.21689    
    519000   302.85526      0.0036258033   2.0514228      751.39225     -14.302864      737.08938    
    520000   315.10962      0.0036258033   2.6889473      781.79566     -12.592373      769.20329    
    521000   302.45881      0.0036258033   2.1755567      750.40864     -13.52571       736.88293    
    522000   295.42059      0.0036258033   1.8632148      732.94663     -14.083354      718.86327    
    523000   300.95824      0.0036258033   2.5226771      746.68568     -15.314701      731.37098    
    524000   308.78184      0.0036258033   2.1082343      766.09626     -13.841566      752.25469    
    525000   307.62024      0.0036258033   1.3945407      763.21431     -12.753809      750.4605     
    526000   293.26475      0.0036258033   1.9070391      727.59792     -12.261234      715.33668    
    527000   295.23957      0.0036258033   2.6034314      732.49751     -11.162379      721.33514    
    528000   311.90612      0.0036258033   1.7055877      773.84769     -11.890326      761.95737    
    529000   304.92125      0.0036258033   1.5016461      756.51802     -10.819912      745.69811    
    530000   296.12431      0.0036258033   1.4924508      734.69257     -8.8569393      725.83564    
    531000   290.52442      0.0036258033   2.3365551      720.7991      -12.102073      708.69702    
    532000   310.62195      0.0036258033   2.5945112      770.66162     -12.993708      757.66792    
    533000   314.5484       0.0036258033   2.2328371      780.40325     -10.974044      769.42921    
    534000   302.64565      0.0036258033   1.2151574      750.8722      -14.092972      736.77923    
    535000   294.24531      0.0036258033   0.99405127     730.03072     -13.845391      716.18533    
    536000   297.25988      0.0036258033   2.1145715      737.50995     -14.138682      723.37127    
    537000   306.49652      0.0036258033   1.4800045      760.4263      -11.980335      748.44597    
    538000   296.9338       0.0036258033   2.0327939      736.70093     -12.938468      723.76246    
    539000   299.7524       0.0036258033   2.3390082      743.69397     -14.501082      729.19289    
    540000   293.16916      0.0036258033   1.957541       727.36076     -12.825326      714.53543    
    541000   316.92206      0.0036258033   2.4620428      786.29237     -15.847772      770.4446     
    542000   309.19823      0.0036258033   1.4238688      767.12932     -16.957296      750.17202    
    543000   283.73042      0.0036258033   1.4588478      703.94299     -14.382006      689.56098    
    544000   294.28821      0.0036258033   2.4627556      730.13715     -11.908897      718.22826    
    545000   307.97342      0.0036258033   2.4445557      764.09055     -12.881116      751.20943    
    546000   319.64716      0.0036258033   0.90689222     793.05341     -11.642535      781.41088    
    547000   290.58959      0.0036258033   1.7514652      720.96077     -10.361293      710.59948    
    548000   293.24828      0.0036258033   4.9418797      727.55707     -13.194828      714.36224    
    549000   306.08178      0.0036258033   1.4621744      759.39734     -11.40069       747.99665    
    550000   299.44672      0.0036258033   0.33331845     742.93557     -11.473666      731.46191    
    551000   313.84028      0.0036258033   2.4195849      778.64638     -10.354814      768.29157    
    552000   309.20651      0.0036258033   4.6733916      767.14987     -10.45942       756.69045    
    553000   294.65278      0.0036258033   2.1800767      731.04168     -12.91725       718.12443    
    554000   299.56421      0.0036258033   0.52805013     743.22705     -12.241372      730.98568    
    555000   301.97898      0.0036258033   2.2736727      749.21817     -11.555906      737.66226    
    556000   290.61233      0.0036258033   2.189136       721.0172      -10.128407      710.88879    
    557000   292.04841      0.0036258033   2.3742574      724.58014     -12.270037      712.31011    
    558000   312.00973      0.0036258033   1.225332       774.10475     -10.588888      763.51586    
    559000   294.95222      0.0036258033   1.7399854      731.78458     -12.181299      719.60328    
    560000   301.71135      0.0036258033   2.8567409      748.55417     -13.221745      735.33243    
    561000   314.08152      0.0036258033   2.5769927      779.24491     -14.409748      764.83516    
    562000   305.64702      0.0036258033   0.55251671     758.31869     -15.013813      743.30487    
    563000   297.21439      0.0036258033   2.2385037      737.3971      -13.536137      723.86096    
    564000   302.97852      0.0036258033   2.2145143      751.69806     -15.114208      736.58385    
    565000   301.81866      0.0036258033  -1.3125606      748.82042     -9.0719611      739.74846    
    566000   298.98116      0.0036258033   1.5716561      741.7805      -12.300498      729.48001    
    567000   300.89842      0.0036258033   4.7217369      746.53728     -12.49851       734.03877    
    568000   297.00153      0.0036258033   3.2221998      736.86899     -11.852731      725.01626    
    569000   306.9753       0.0036258033   2.1278386      761.61417     -12.173263      749.44091    
    570000   300.84297      0.0036258033  -0.59530618     746.3997      -13.132195      733.26751    
    571000   299.10866      0.0036258033   2.6667923      742.09682     -16.512411      725.58441    
    572000   298.71039      0.0036258033   1.9100331      741.10871     -16.22728       724.88143    
    573000   294.15864      0.0036258033   1.6775922      729.81569     -15.9468        713.86889    
    574000   282.2132       0.0036258033   2.199615       700.17874     -10.542902      689.63583    
    575000   307.92658      0.0036258033   0.34888677     763.97433     -11.91752       752.05681    
    576000   303.55681      0.0036258033   1.9996353      753.13281     -9.6992765      743.43353    
    577000   305.64925      0.0036258033   3.2028762      758.32421     -11.228024      747.09618    
    578000   294.29534      0.0036258033   2.3512919      730.15485     -12.639189      717.51566    
    579000   298.94838      0.0036258033   1.889933       741.69916     -11.449977      730.24919    
    580000   295.91114      0.0036258033   0.77970469     734.1637      -12.728482      721.43522    
    581000   304.91829      0.0036258033   2.269952       756.51069     -12.02149       744.48919    
    582000   288.36746      0.0036258033   3.3432474      715.44762     -11.162593      704.28502    
    583000   293.95259      0.0036258033   1.60149        729.30449     -11.477263      717.82723    
    584000   309.50948      0.0036258033   1.081604       767.90156     -11.100945      756.80061    
    585000   301.04475      0.0036258033   1.5120739      746.90032     -9.1012959      737.79903    
    586000   295.70814      0.0036258033   2.0028765      733.66004     -10.200448      723.4596     
    587000   307.62128      0.0036258033   2.2754431      763.21688     -11.820267      751.39661    
    588000   294.51677      0.0036258033   3.2640987      730.70421     -11.74491       718.95931    
    589000   295.67981      0.0036258033   0.66125722     733.58976     -9.9806501      723.60911    
    590000   300.48415      0.0036258033  -2.0826759      745.50947     -10.60899       734.90048    
    591000   310.62675      0.0036258033   2.4713891      770.67353     -12.220631      758.4529     
    592000   296.94092      0.0036258033   2.9316869      736.7186      -10.956304      725.76229    
    593000   287.47682      0.0036258033   2.5478482      713.23793     -10.667145      702.57078    
    594000   297.06643      0.0036258033   1.4504484      737.03        -11.825705      725.2043     
    595000   306.23543      0.0036258033   1.9063563      759.77855     -11.841512      747.93704    
    596000   318.15873      0.0036258033   2.002499       789.36057     -11.80941       777.55116    
    597000   298.35384      0.0036258033   1.85629        740.22409     -12.292916      727.93118    
    598000   288.82569      0.0036258033   1.7560542      716.58449     -11.63761       704.94688    
    599000   291.18228      0.0036258033   1.3426623      722.43126     -11.881018      710.55024    
    600000   307.96298      0.0036258033   1.7834299      764.06464     -12.25301       751.81163    
    601000   302.60871      0.0036258033   3.7006055      750.78056     -10.690272      740.09029    
    602000   297.97735      0.0036258033   2.1216889      739.29001     -12.239324      727.05069    
    603000   320.46122      0.0036258033   1.8750357      795.07311     -12.765247      782.30787    
    604000   314.49291      0.0036258033   2.3291468      780.26559     -12.535431      767.73015    
    605000   293.06197      0.0036258033   2.2348985      727.09482     -13.452821      713.642      
    606000   286.65609      0.0036258033   1.9207289      711.20167     -13.307419      697.89425    
    607000   304.51845      0.0036258033   2.1069088      755.51867     -11.438131      744.08054    
    608000   310.43468      0.0036258033   2.0132403      770.197       -11.434108      758.7629     
    609000   290.38913      0.0036258033   2.270681       720.46344     -9.1450427      711.3184     
    610000   299.07208      0.0036258033   2.0591982      742.00608     -10.223378      731.7827     
    611000   298.36795      0.0036258033   1.824248       740.25911     -10.5929        729.66621    
    612000   303.78678      0.0036258033   2.2928027      753.70338     -10.029468      743.67391    
    613000   303.4019       0.0036258033   2.2796218      752.74848     -11.455991      741.29249    
    614000   308.50719      0.0036258033   2.3978667      765.41485     -12.296494      753.11835    
    615000   288.54201      0.0036258033   1.4962722      715.88069     -13.853976      702.02671    
    616000   280.61513      0.0036258033   1.7752372      696.21388     -11.8715        684.34238    
    617000   304.69952      0.0036258033   2.4247663      755.96792     -12.944359      743.02356    
    618000   312.41483      0.0036258033   2.1832669      775.10982     -13.785941      761.32388    
    619000   297.74882      0.0036258033   0.62454709     738.72303     -14.198595      724.52443    
    620000   290.15676      0.0036258033   1.6602636      719.88693     -12.948617      706.93831    
    621000   300.99204      0.0036258033   2.8026888      746.76954     -12.903506      733.86604    
    622000   310.73277      0.0036258033   1.7519829      770.93657     -15.239943      755.69663    
    623000   295.22604      0.0036258033   1.962278       732.46395     -12.727151      719.7368     
    624000   292.21514      0.0036258033   2.149969       724.99382     -12.632359      712.36146    
    625000   300.65896      0.0036258033   3.2612355      745.94317     -10.889314      735.05386    
    626000   307.39386      0.0036258033   3.4070691      762.65263     -13.478236      749.17439    
    627000   301.19411      0.0036258033   1.3018087      747.27089     -12.908602      734.36229    
    628000   275.11911      0.0036258033  -1.7490933      682.5781      -17.233837      665.34426    
    629000   293.19844      0.0036258033   0.99997049     727.43341     -13.721743      713.71166    
    630000   301.83934      0.0036258033   2.0656371      748.87172     -16.135835      732.73588    
    631000   319.52349      0.0036258033   6.5011651      792.74659     -14.97817       777.76842    
    632000   310.21374      0.0036258033  -1.0501396      769.64883     -15.252352      754.39648    
    633000   290.57106      0.0036258033  -8.1761588      720.91482     -15.199792      705.71503    
    634000   298.6286       0.0036258033   2.9444937      740.9058      -13.322502      727.5833     
    635000   310.8224       0.0036258033   2.6980562      771.15895     -16.780231      754.37872    
    636000   297.14977      0.0036258033  -1.3214726      737.23678     -14.644853      722.59193    
    637000   281.20604      0.0036258033  -0.39037938     697.67993     -13.237593      684.44234    
    638000   293.26055      0.0036258033   2.761133       727.5875      -14.605673      712.98182    
    639000   304.12499      0.0036258033   2.8198402      754.54249     -12.785451      741.75704    
    640000   309.52264      0.0036258033   2.0221461      767.9342      -11.209233      756.72497    
    641000   291.00917      0.0036258033   0.53684737     722.00177     -9.4360266      712.56575    
    642000   293.0383       0.0036258033   2.943696       727.03611     -11.097291      715.93881    
    643000   319.31768      0.0036258033   2.1680419      792.23597     -12.952819      779.28315    
    644000   296.77829      0.0036258033   1.8361355      736.31512     -11.347221      724.9679     
    645000   289.69127      0.0036258033   2.2676079      718.73203     -9.83679        708.89524    
    646000   302.4327       0.0036258033   2.0644445      750.34386     -10.889163      739.45469    
    647000   300.11003      0.0036258033   1.8629549      744.58126     -10.052576      734.52868    
    648000   298.86285      0.0036258033   2.4845791      741.48696     -12.068725      729.41824    
    649000   287.53477      0.0036258033   1.8036764      713.3817      -11.282334      702.09937    
    650000   302.69599      0.0036258033   2.0026251      750.99709     -10.434832      740.56225    
    651000   312.61368      0.0036258033   1.734591       775.60317     -9.1354463      766.46772    
    652000   299.02117      0.0036258033   1.8445596      741.87978     -6.6921461      735.18763    
    653000   296.54276      0.0036258033   4.2934851      735.73077     -8.2609825      727.46979    
    654000   304.83002      0.0036258033   3.1543271      756.29169     -8.6456702      747.64602    
    655000   303.21384      0.0036258033   1.5650818      752.2819      -5.311313       746.97059    
    656000   288.58507      0.0036258033   2.2692524      715.9875      -8.8478371      707.13966    
    657000   295.54637      0.0036258033   2.3205269      733.25869     -8.7435953      724.5151     
    658000   300.5676       0.0036258033   2.0547295      745.71649     -8.4036967      737.31279    
    659000   298.76304      0.0036258033   2.5110827      741.23935     -7.708798       733.53055    
    660000   300.61926      0.0036258033   1.9277047      745.84468     -7.5934745      738.25121    
    661000   299.8812       0.0036258033   1.7940275      744.01352     -8.6401535      735.37336    
    662000   313.62467      0.0036258033   2.2435321      778.11145     -10.049061      768.06239    
    663000   311.2098       0.0036258033   1.9995481      772.12009     -10.857144      761.26295    
    664000   293.129        0.0036258033   1.184398       727.26114     -14.169973      713.09117    
    665000   291.72961      0.0036258033   1.7763046      723.7892      -14.369197      709.42       
    666000   298.35029      0.0036258033   0.3551127      740.21529     -12.935126      727.28017    
    667000   305.71058      0.0036258033   1.9969075      758.47637     -13.495145      744.98123    
    668000   298.12824      0.0036258033   3.2507104      739.66437     -11.005751      728.65862    
    669000   281.74164      0.0036258033   0.25246232     699.00878     -11.585072      687.42371    
    670000   295.04072      0.0036258033   0.9338567      732.00416     -9.7457513      722.25841    
    671000   316.62291      0.0036258033   0.28731399     785.55017     -10.968596      774.58157    
    672000   292.51368      0.0036258033   3.4205227      725.73451     -11.224733      714.50978    
    673000   294.29362      0.0036258033   2.7299954      730.15058     -11.732786      718.4178     
    674000   305.76491      0.0036258033   0.17653896     758.61117     -13.219818      745.39135    
    675000   319.35486      0.0036258033   0.53222591     792.32821     -11.62543       780.70278    
    676000   295.99989      0.0036258033   3.9373696      734.38388     -12.101584      722.2823     
    677000   284.50657      0.0036258033   0.77666927     705.86863     -14.297801      691.57083    
    678000   298.50952      0.0036258033  -0.8622515      740.61036     -15.472784      725.13757    
    679000   304.69759      0.0036258033   2.1227316      755.96311     -12.993213      742.96989    
    680000   301.9047       0.0036258033   3.6466255      749.03388     -11.599945      737.43394    
    681000   285.28694      0.0036258033   3.1604368      707.80477     -6.0741156      701.73065    
    682000   299.78468      0.0036258033   0.87819424     743.77405     -8.1106574      735.66339    
    683000   306.80481      0.0036258033   5.0625046      761.19119     -9.7489598      751.44223    
    684000   293.21823      0.0036258033   2.7203714      727.48252     -9.380022       718.10249    
    685000   281.68315      0.0036258033  -0.86038991     698.86366     -10.572119      688.29154    
    686000   310.53406      0.0036258033   1.6304137      770.44356     -11.723103      758.72045    
    687000   308.93475      0.0036258033   1.5722782      766.47564     -9.6378334      756.8378     
    688000   310.64825      0.0036258033   5.4700511      770.72687     -9.8845085      760.84236    
    689000   290.29022      0.0036258033   2.5404234      720.21805     -12.320613      707.89744    
    690000   303.78467      0.0036258033   1.4307886      753.69813     -9.9416326      743.7565     
    691000   303.52724      0.0036258033   0.015868833    753.05945     -8.5089377      744.55052    
    692000   306.07955      0.0036258033   2.4017052      759.39179     -9.6813117      749.71048    
    693000   293.00616      0.0036258033   5.3499787      726.95636     -9.3002803      717.65608    
    694000   296.63869      0.0036258033   1.0895062      735.96877     -9.8345798      726.13419    
    695000   299.20942      0.0036258033  -1.5417215      742.34681     -9.7431742      732.60363    
    696000   298.43639      0.0036258033  -0.053469265    740.4289      -12.014422      728.41448    
    697000   298.06429      0.0036258033   5.051862       739.50571     -10.376889      729.12883    
    698000   293.69341      0.0036258033   0.92627192     728.66144     -11.208706      717.45274    
    699000   305.38288      0.0036258033  -1.1497666      757.66335     -9.2618563      748.4015     
    700000   295.41873      0.0036258033   5.731923       732.94202     -7.2374263      725.7046     
    701000   298.10783      0.0036258033   1.9321059      739.61375     -8.964875       730.64887    
    702000   307.484        0.0036258033  -0.031884464    762.87629     -8.8798186      753.99647    
    703000   312.09144      0.0036258033   2.511719       774.30747     -9.4662758      764.8412     
    704000   292.5383       0.0036258033   4.2788921      725.79558     -12.747422      713.04816    
    705000   279.77039      0.0036258033   0.97942754     694.11806     -13.637216      680.48084    
    706000   304.90925      0.0036258033   0.80751316     756.48826     -13.355174      743.13308    
    707000   310.06222      0.0036258033   3.568164       769.27292     -14.857829      754.41509    
    708000   292.36178      0.0036258033   3.6367913      725.35764     -13.857862      711.49978    
    709000   292.06938      0.0036258033   1.1059504      724.63218     -11.499042      713.13314    
    710000   301.40771      0.0036258033   0.17046108     747.80083     -11.30084       736.49999    
    711000   305.24416      0.0036258033  -1.165823       757.31918     -11.017512      746.30167    
    712000   298.06956      0.0036258033   3.7470506      739.51878     -4.1728871      735.3459     
    713000   299.00461      0.0036258033   3.4149188      741.83867     -10.540755      731.29792    
    714000   297.22967      0.0036258033  -0.83608702     737.43501     -9.9913367      727.44367    
    715000   301.7142       0.0036258033   1.9764229      748.56124     -12.595486      735.96576    
    716000   296.39853      0.0036258033   4.3388687      735.37292     -11.822855      723.55007    
    717000   300.91451      0.0036258033   1.7617186      746.57719     -10.629892      735.94729    
    718000   302.13653      0.0036258033  -1.4420364      749.60907     -12.43914       737.16993    
    719000   294.82162      0.0036258033   2.7837822      731.46057     -11.251043      720.20953    
    720000   287.0174       0.0036258033   4.7568886      712.09809     -8.5329135      703.56518    
    721000   302.08727      0.0036258033  -1.8847789      749.48684     -9.8832069      739.60364    
    722000   309.62167      0.0036258033   1.570844       768.17989     -10.65756       757.52233    
    723000   285.72033      0.0036258033   3.1886772      708.88001     -9.9091102      698.9709     
    724000   293.04746      0.0036258033   1.6884133      727.05883     -11.9576        715.10123    
[...]
   3823000   321.20434      0.0036258033   2.0700569      796.91681     -6.6628987      790.25391    
   3824000   307.53552      0.0036258033   1.6110449      763.00411     -9.2378004      753.7663     
   3825000   293.73946      0.0036258033   1.6227292      728.7757      -5.8014492      722.97425    
   3826000   289.07667      0.0036258033   2.0166797      717.20718     -7.5286099      709.67857    
   3827000   312.08904      0.0036258033   2.2227243      774.30152     -7.5067741      766.79474    
   3828000   307.77917      0.0036258033   1.6193383      763.60859     -5.9286551      757.67994    
   3829000   296.88705      0.0036258033   1.9637492      736.58495     -7.3632123      729.22174    
   3830000   298.30078      0.0036258033   2.2329548      740.09246     -5.4735567      734.6189     
   3831000   301.90753      0.0036258033   2.0238823      749.0409      -8.0446523      740.99625    
   3832000   306.68085      0.0036258033   3.0583321      760.88364     -7.9359977      752.94764    
   3833000   290.3202       0.0036258033   2.2059985      720.29241     -9.3755076      710.9169     
   3834000   293.6874       0.0036258033   1.6001637      728.64653     -10.578656      718.06787    
   3835000   302.33347      0.0036258033   2.0677712      750.09768     -7.334802       742.76288    
   3836000   301.3877       0.0036258033   2.1213652      747.7512      -9.3459669      738.40523    
   3837000   284.34576      0.0036258033   0.95647037     705.46966     -6.9602989      698.50936    
   3838000   292.71013      0.0036258033   1.9151183      726.22189     -10.055797      716.1661     
   3839000   304.61829      0.0036258033   2.1349383      755.76638     -5.7182342      750.04815    
   3840000   307.19119      0.0036258033   2.1016614      762.14982     -9.3231893      752.82663    
   3841000   301.98334      0.0036258033   1.7865583      749.22898     -7.1813061      742.04768    
   3842000   296.81394      0.0036258033   2.4937707      736.40358     -7.038177       729.3654     
   3843000   304.09573      0.0036258033   2.0609432      754.46988     -6.4242011      748.04568    
   3844000   292.96236      0.0036258033   1.6476242      726.8477      -6.5005745      720.34712    
   3845000   294.31857      0.0036258033   1.7579683      730.21248     -6.9285701      723.28391    
   3846000   298.42679      0.0036258033   1.9506151      740.40509     -8.3451592      732.05993    
   3847000   299.31199      0.0036258033   2.1090522      742.60129     -5.6449197      736.95637    
   3848000   299.81674      0.0036258033   2.3529545      743.8536      -6.565495       737.28811    
   3849000   299.64702      0.0036258033   1.4670292      743.43252     -6.2811459      737.15138    
   3850000   297.96634      0.0036258033   1.8462422      739.26269     -7.3052483      731.95744    
   3851000   310.1819       0.0036258033   2.3796751      769.56985     -7.5736584      761.9962     
   3852000   312.59165      0.0036258033   3.3405886      775.54851     -8.0544014      767.49411    
   3853000   299.21413      0.0036258033   1.8795784      742.35849     -7.1428785      735.21561    
   3854000   302.38209      0.0036258033   0.896474       750.21829     -6.6151586      743.60314    
   3855000   304.95974      0.0036258033   1.9045174      756.61351     -5.6776393      750.93587    
   3856000   316.64967      0.0036258033   2.3462113      785.61655     -5.1356079      780.48094    
   3857000   303.92972      0.0036258033   3.0614117      754.058       -5.5066105      748.55139    
   3858000   290.3747       0.0036258033   2.1785954      720.42764     -5.2308185      715.19682    
   3859000   288.872        0.0036258033   1.7507427      716.69939     -7.0743767      709.62501    
   3860000   314.06672      0.0036258033   2.1639697      779.2082      -7.9167631      771.29143    
   3861000   297.9129       0.0036258033   1.7222585      739.13011     -9.2805675      729.84954    
   3862000   298.9288       0.0036258033   2.0197879      741.6506      -8.4768685      733.17373    
   3863000   303.45444      0.0036258033   2.7939253      752.87883     -6.475678       746.40315    
   3864000   300.21016      0.0036258033   2.2368884      744.82967     -7.4433143      737.38636    
   3865000   300.53158      0.0036258033   2.0405995      745.62714     -5.9174026      739.70973    
   3866000   287.82634      0.0036258033   2.1813074      714.10507     -6.2177944      707.88728    
   3867000   304.13996      0.0036258033   1.6540132      754.57963     -6.2031124      748.37652    
   3868000   314.93448      0.0036258033   2.4826413      781.36112     -6.5520748      774.80905    
   3869000   294.64628      0.0036258033   2.0866898      731.02554     -7.3907206      723.63482    
   3870000   292.44423      0.0036258033   1.804144       725.56221     -8.2645184      717.29769    
   3871000   303.23963      0.0036258033   3.0028555      752.34587     -9.0171362      743.32874    
   3872000   308.19353      0.0036258033   2.0532817      764.63664     -10.16778       754.46886    
   3873000   297.95121      0.0036258033   1.8786102      739.22518     -7.078838       732.14634    
   3874000   292.32023      0.0036258033   2.3434145      725.25455     -9.1767314      716.07782    
   3875000   303.97225      0.0036258033   1.7615291      754.16354     -6.7862885      747.37725    
   3876000   309.52689      0.0036258033   2.3598879      767.94475     -8.2244899      759.72026    
   3877000   296.81972      0.0036258033   2.2541565      736.41792     -5.4377309      730.98019    
   3878000   289.28022      0.0036258033   2.1639476      717.71221     -4.6652032      713.04701    
   3879000   303.91318      0.0036258033   1.8754932      754.01698     -5.919621       748.09736    
   3880000   310.97136      0.0036258033   2.2596408      771.52851     -4.6984417      766.83006    
   3881000   302.18886      0.0036258033   2.0168283      749.73889     -5.8408973      743.89799    
   3882000   297.0368       0.0036258033   2.5236088      736.95648     -3.8307501      733.12573    
   3883000   290.35321      0.0036258033   0.49275009     720.37432     -4.7162615      715.65806    
   3884000   300.7695       0.0036258033   1.179076       746.21741     -5.8939327      740.32348    
   3885000   304.18534      0.0036258033   2.1280164      754.69222     -7.2055151      747.4867     
   3886000   297.34616      0.0036258033   2.1460876      737.72402     -7.933188       729.79083    
   3887000   300.54557      0.0036258033   2.2898414      745.66185     -5.889567       739.77228    
   3888000   300.02647      0.0036258033   2.0478092      744.37393     -7.5782595      736.79567    
   3889000   293.74623      0.0036258033   1.9542759      728.79249     -6.7137183      722.07877    
   3890000   294.97036      0.0036258033   1.8663612      731.82961     -7.165454       724.66415    
   3891000   288.71114      0.0036258033   2.1284478      716.3003      -6.7510199      709.54928    
   3892000   304.88947      0.0036258033   2.7845228      756.43919     -6.7114375      749.72775    
   3893000   305.57497      0.0036258033   1.8640848      758.13993     -7.9956606      750.14427    
   3894000   288.85844      0.0036258033   1.9999787      716.66575     -8.7758992      707.88985    
   3895000   298.99052      0.0036258033   1.7673608      741.80373     -10.04674       731.75699    
   3896000   298.37098      0.0036258033   2.1309222      740.26663     -6.3594824      733.90715    
   3897000   289.5778       0.0036258033   2.1275526      718.45051     -7.7746577      710.67585    
   3898000   301.31141      0.0036258033   2.2784885      747.56191     -7.1067254      740.45519    
   3899000   308.00005      0.0036258033   2.3732316      764.1566      -9.6362414      754.52036    
   3900000   295.00875      0.0036258033   2.3789178      731.92484     -6.8171986      725.10764    
   3901000   300.03575      0.0036258033   1.9311594      744.39696     -8.1960318      736.20093    
   3902000   308.11839      0.0036258033   2.2047491      764.45022     -6.6883192      757.7619     
   3903000   317.4684       0.0036258033   2.1712292      787.64784     -6.8089854      780.83886    
   3904000   296.55358      0.0036258033   1.7999303      735.75761     -6.5379689      729.21964    
   3905000   294.70804      0.0036258033   1.9848232      731.17876     -8.3931599      722.7856     
   3906000   306.4817       0.0036258033   2.3279657      760.38954     -6.5488642      753.84068    
   3907000   301.79786      0.0036258033   2.1406983      748.7688      -7.254194       741.51461    
   3908000   287.38045      0.0036258033   1.9702791      712.99881     -9.6626493      703.33616    
   3909000   301.02723      0.0036258033   1.8554858      746.85686     -10.64289       736.21397    
   3910000   300.91321      0.0036258033   1.9829244      746.57397     -9.7587091      736.81526    
   3911000   292.793        0.0036258033   2.0929256      726.42751     -7.2695943      719.15792    
   3912000   308.21497      0.0036258033   2.2673954      764.68984     -9.1993475      755.49049    
   3913000   310.93999      0.0036258033   1.9206414      771.45069     -10.885456      760.56523    
   3914000   297.53694      0.0036258033   1.9117569      738.19735     -9.3429803      728.85437    
   3915000   290.77343      0.0036258033   2.0238217      721.41691     -10.101624      711.31528    
   3916000   299.75618      0.0036258033   1.7492733      743.70333     -10.721947      732.98139    
   3917000   303.49308      0.0036258033   2.0305091      752.9747      -7.9446711      745.03003    
   3918000   308.78945      0.0036258033   1.7260135      766.11513     -8.8406546      757.27447    
   3919000   295.50187      0.0036258033   1.1651925      733.1483      -8.8963967      724.2519     
   3920000   294.09583      0.0036258033   2.029638       729.65985     -10.137671      719.52218    
   3921000   296.74521      0.0036258033   2.0678731      736.23305     -12.824492      723.40856    
   3922000   296.94399      0.0036258033   1.7262957      736.72622     -11.350544      725.37568    
   3923000   302.87743      0.0036258033   1.6698662      751.44726     -10.413448      741.03381    
   3924000   297.89049      0.0036258033   2.5765055      739.07452     -10.71762       728.3569     
   3925000   293.76752      0.0036258033   2.1742287      728.8453      -8.2324181      720.61289    
   3926000   295.35207      0.0036258033   1.9437407      732.77663     -7.2310162      725.54561    
   3927000   301.3367       0.0036258033   2.0471773      747.62465     -7.7870176      739.83763    
   3928000   300.50137      0.0036258033   2.2028422      745.55218     -7.1190668      738.43312    
   3929000   303.36119      0.0036258033   0.95601495     752.64748     -7.3857713      745.26171    
   3930000   296.67925      0.0036258033   1.2063463      736.06939     -8.2016025      727.86779    
   3931000   306.13858      0.0036258033   3.2002317      759.53826     -9.1551599      750.3831     
   3932000   306.10425      0.0036258033   2.8857487      759.45308     -9.6904376      749.76265    
   3933000   291.26488      0.0036258033   1.7402603      722.63619     -8.230824       714.40536    
   3934000   301.14224      0.0036258033   1.8668788      747.14219     -9.1069459      738.03524    
   3935000   296.84409      0.0036258033   2.5403625      736.47838     -7.0801722      729.3982     
   3936000   300.46699      0.0036258033   1.9255209      745.46688     -6.8785009      738.58838    
   3937000   305.9092       0.0036258033   3.4830005      758.96915     -10.03074       748.93841    
   3938000   311.56144      0.0036258033   2.9336501      772.99253     -7.7710738      765.22146    
   3939000   302.10019      0.0036258033  -0.86404088     749.5189      -6.0625881      743.45631    
   3940000   293.95227      0.0036258033   0.59416079     729.3037      -5.1898134      724.11388    
   3941000   315.04519      0.0036258033   1.9143377      781.63581     -8.22904        773.40677    
   3942000   307.59069      0.0036258033   3.2715166      763.14097     -8.8806235      754.26035    
   3943000   291.27849      0.0036258033   2.391682       722.66996     -9.2285224      713.44144    
   3944000   296.36046      0.0036258033  -1.311689       735.27848     -8.1281721      727.15031    
   3945000   309.8632       0.0036258033   1.0218979      768.77914     -9.9019165      758.87722    
   3946000   312.25254      0.0036258033   3.0814429      774.70716     -9.9517455      764.75542    
   3947000   300.38952      0.0036258033   4.5630447      745.27468     -8.1148401      737.15984    
   3948000   288.5872       0.0036258033   1.3704245      715.99281     -8.1280374      707.86477    
   3949000   301.45721      0.0036258033  -2.3135485      747.92364     -7.9432385      739.9804     
   3950000   303.00998      0.0036258033   1.571317       751.77611     -9.172255       742.60386    
   3951000   306.09352      0.0036258033   3.9696981      759.42647     -10.756321      748.67015    
   3952000   287.02669      0.0036258033   2.6279715      712.12113     -8.2647247      703.8564     
   3953000   298.22314      0.0036258033  -1.1940075      739.89984     -9.5422221      730.35762    
   3954000   306.8755       0.0036258033  -0.0049519842   761.36658     -8.6438132      752.72277    
   3955000   315.36021      0.0036258033   6.1193918      782.41737     -9.1272902      773.29008    
   3956000   292.21195      0.0036258033   2.6057584      724.9859      -9.5773633      715.40853    
   3957000   301.38709      0.0036258033  -1.1270264      747.74968     -11.184394      736.56529    
   3958000   314.87482      0.0036258033   1.0784197      781.2131      -10.401414      770.81168    
   3959000   295.79683      0.0036258033   5.2399941      733.8801      -7.2870301      726.59307    
   3960000   296.08192      0.0036258033   0.93270415     734.5874      -7.5714308      727.01597    
   3961000   317.95363      0.0036258033   3.2571631      788.85172     -9.4089302      779.44279    
   3962000   302.20122      0.0036258033   5.0099826      749.76955     -11.129283      738.64027    
   3963000   291.32112      0.0036258033   0.75747381     722.77572     -10.788273      711.98745    
   3964000   314.05511      0.0036258033   2.2979053      779.1794      -8.4904498      770.68895    
   3965000   295.76274      0.0036258033   4.0545881      733.79551     -7.4992068      726.2963     
   3966000   297.71262      0.0036258033   2.0553618      738.63321     -7.9967201      730.63649    
   3967000   300.99474      0.0036258033   1.3893135      746.77626     -8.5248864      738.25137    
   3968000   309.31209      0.0036258033   2.3423719      767.41182     -7.1544991      760.25732    
   3969000   285.30269      0.0036258033   2.2405597      707.84384     -6.5943792      701.24946    
   3970000   296.40134      0.0036258033   1.6768998      735.37989     -5.1944939      730.18539    
   3971000   319.15706      0.0036258033   1.6919985      791.83746     -5.9409871      785.89647    
   3972000   303.9933       0.0036258033   2.4928917      754.21577     -5.8486844      748.36708    
   3973000   293.42588      0.0036258033   2.0658484      727.99769     -7.0243639      720.97333    
   3974000   290.634        0.0036258033   0.5027884      721.07095     -8.7875598      712.28339    
   3975000   314.4262       0.0036258033   2.2849068      780.10006     -9.829072       770.27099    
   3976000   288.27725      0.0036258033   1.9233529      715.22381     -9.2939714      705.92984    
   3977000   293.01618      0.0036258033   1.4054202      726.98121     -8.6313562      718.34986    
   3978000   328.25263      0.0036258033   2.0673602      814.40381     -6.9630991      807.44071    
   3979000   293.49362      0.0036258033   2.355337       728.16577     -7.8396031      720.32617    
   3980000   290.64611      0.0036258033   2.1926025      721.10102     -7.3275204      713.7735     
   3981000   303.70353      0.0036258033   1.4355832      753.49683     -8.4987659      744.99806    
   3982000   308.61062      0.0036258033   2.1258011      765.67147     -8.6468543      757.02461    
   3983000   297.29981      0.0036258033   2.3874853      737.60902     -9.1330709      728.47595    
   3984000   295.82807      0.0036258033   1.9756402      733.95759     -8.2485358      725.70906    
   3985000   309.73962      0.0036258033   0.42635607     768.47253     -7.3912427      761.08129    
   3986000   302.05917      0.0036258033   2.7853788      749.41714     -8.896265       740.52087    
   3987000   280.18365      0.0036258033   2.3475108      695.14337     -7.105356       688.03801    
   3988000   306.74761      0.0036258033   1.4807583      761.04928     -6.862149       754.18713    
   3989000   334.83515      0.0036258033   2.2058614      830.73524     -7.3596605      823.37558    
   3990000   302.10439      0.0036258033   1.9250801      749.52932     -5.0672598      744.46206    
   3991000   282.80956      0.0036258033   2.024536       701.65831     -5.7892626      695.86905    
   3992000   291.40486      0.0036258033   1.4414836      722.98349     -5.3595787      717.62391    
   3993000   306.09181      0.0036258033   2.0885018      759.42222     -6.3643578      753.05786    
   3994000   309.62118      0.0036258033   2.1091645      768.17868     -5.0229179      763.15576    
   3995000   302.85496      0.0036258033   1.9030802      751.39152     -7.9300681      743.46145    
   3996000   292.46819      0.0036258033   1.9259882      725.62163     -11.166742      714.45489    
   3997000   306.56163      0.0036258033   3.05203        760.58786     -7.0684078      753.51946    
   3998000   311.95042      0.0036258033   1.3110046      773.95759     -5.0579337      768.89966    
   3999000   297.86638      0.0036258033   1.9227989      739.01471     -6.3791747      732.63553    
   4000000   286.7232       0.0036258033   1.8255944      711.36816     -8.5116113      702.85655    
Loop time of 19868.1 on 1 procs for 4000000 steps with 1500 atoms

Performance: 4.349 ns/day, 5.519 hours/ns, 201.328 timesteps/s, 301.992 katom-step/s
99.3% CPU use with 1 MPI tasks x 1 OpenMP threads

MPI task timing breakdown:
Section |  min time  |  avg time  |  max time  |%varavg| %total
---------------------------------------------------------------
Pair    | 1063.9     | 1063.9     | 1063.9     |   0.0 |  5.35
Bond    | 192.3      | 192.3      | 192.3      |   0.0 |  0.97
Kspace  | 17622      | 17622      | 17622      |   0.0 | 88.69
Neigh   | 0.066894   | 0.066894   | 0.066894   |   0.0 |  0.00
Comm    | 45.993     | 45.993     | 45.993     |   0.0 |  0.23
Output  | 0.14075    | 0.14075    | 0.14075    |   0.0 |  0.00
Modify  | 914.93     | 914.93     | 914.93     |   0.0 |  4.61
Other   |            | 29.08      |            |       |  0.15

Nlocal:           1500 ave        1500 max        1500 min
Histogram: 1 0 0 0 0 0 0 0 0 0
Nghost:            647 ave         647 max         647 min
Histogram: 1 0 0 0 0 0 0 0 0 0
Neighs:              0 ave           0 max           0 min
Histogram: 1 0 0 0 0 0 0 0 0 0

Total # of neighbors = 0
Ave neighs/atom = 0
Ave special neighs/atom = 2
Neighbor list builds = 23025
Dangerous builds = 0
write_data	last_conf.data pair ij
System init for write_data ...
PPPM initialization ...
  using 12-bit tables for long-range coulomb (src/kspace.cpp:342)
  G vector (1/distance) = 0.14624004
  grid = 36 36 36
  stencil order = 5
  estimated absolute RMS force accuracy = 0.037261173
  estimated relative force accuracy = 0.00011221091
  using double precision FFTW3
  3d grid and FFT values/proc = 68921 46656
Generated 1 of 1 mixed pair_coeff terms from arithmetic mixing rule
Total wall time: 5:31:08
