LAMMPS data file via write_data, version 29 Aug 2024, timestep = 0, units = real

1500 atoms
2 atom types
1000 bonds
1 bond types
500 angles
1 angle types

0 125 xlo xhi
0 125 ylo yhi
0 125 zlo zhi

Masses

1 12.0107
2 15.9994

PairIJ Coeffs # lj/cut/coul/long/gpu

1 1 0.053649 2.8 12
1 2 0.0917684 2.925 12
2 2 0.156973 3.05 12

Bond Coeffs # harmonic

1 0 1.16

Angle Coeffs # harmonic

1 0 180

Atoms # full

1 1 1 0.7 9.209583925180874 35.477030514961584 12.451864959416849 0 0 0
2 1 2 -0.35 8.201923180938659 35.71471654059514 11.928677442620291 0 0 0
3 1 2 -0.35 10.21724466942309 35.239344489328026 12.975052476213406 0 0 0
4 2 1 0.7 28.4943729189664 29.925649068283686 85.38389064389462 0 0 0
5 2 2 -0.35 28.841692775095982 30.426216159095897 84.39677286716586 0 0 0
6 2 2 -0.35 28.147053062836815 29.425081977471475 86.37100842062337 0 0 0
7 3 1 0.7 47.05005193690307 20.222903529751534 11.339624534053552 0 0 0
8 3 2 -0.35 46.58744308195009 19.159140314915025 11.33869175337752 0 0 0
9 3 2 -0.35 47.51266079185604 21.286666744588043 11.340557314729585 0 0 0
10 4 1 0.7 85.0695438380677 13.823286403819585 77.97458899578758 0 0 0
11 4 2 -0.35 83.9844845203087 14.022330341970747 78.33323615892935 0 0 0
12 4 2 -0.35 86.1546031558267 13.624242465668424 77.61594183264582 0 0 0
13 5 1 0.7 18.91725220201409 67.2577592508205 26.159728540181987 0 0 0
14 5 2 -0.35 18.74459342696967 67.54273770034074 27.270843399550362 0 0 0
15 5 2 -0.35 19.089910977058512 66.97278080130026 25.048613680813613 0 0 0
16 6 1 0.7 41.557574838659534 83.16031335068881 50.38648502686363 0 0 0
17 6 2 -0.35 40.47010065427012 83.33387299587906 50.02196212244196 0 0 0
18 6 2 -0.35 42.64504902304895 82.98675370549856 50.7510079312853 0 0 0
19 7 1 0.7 95.65384649702061 29.198075425437686 107.05367533120032 0 0 0
20 7 2 -0.35 94.63247389745544 29.46075154168501 106.57056119270847 0 0 0
21 7 2 -0.35 96.67521909658578 28.935399309190363 107.53678946969218 0 0 0
22 8 1 0.7 1.1212914838089103 95.54596837635431 91.09050138671441 0 0 0
23 8 2 -0.35 0.6463980840792068 96.5634006581777 91.38189083538548 0 0 0
24 8 2 -0.35 1.5961848835386139 94.52853609453092 90.79911193804334 0 0 0
25 9 1 0.7 83.05680650894381 60.74699581868341 99.75872461207152 0 0 0
26 9 2 -0.35 82.71604950589503 61.45901439383713 98.90871625122483 0 0 0
27 9 2 -0.35 83.39756351199259 60.03497724352969 100.6087329729182 0 0 0
28 10 1 0.7 19.884555085974075 74.7173299662384 24.164742568584504 0 0 0
29 10 2 -0.35 19.89113439594842 73.75778799202114 24.81653694750742 0 0 0
30 10 2 -0.35 19.87797577599973 75.67687194045565 23.51294818966159 0 0 0
31 11 1 0.7 11.828350199772208 49.08180757150138 42.9398542237188 0 0 0
32 11 2 -0.35 11.433939228219662 49.052629492653715 44.03035347875464 0 0 0
33 11 2 -0.35 12.222761171324754 49.11098565034904 41.84935496868295 0 0 0
34 12 1 0.7 65.12993804185183 13.868669403655767 90.72666724246307 0 0 0
35 12 2 -0.35 64.21059926322506 14.552077694937354 90.90933994847201 0 0 0
36 12 2 -0.35 66.0492768204786 13.18526111237418 90.54399453645412 0 0 0
37 13 1 0.7 93.09634407660754 45.25489554286697 99.02938896512119 0 0 0
38 13 2 -0.35 93.18131425342968 44.1040529848585 98.91131493864908 0 0 0
39 13 2 -0.35 93.0113738997854 46.40573810087544 99.14746299159329 0 0 0
40 14 1 0.7 11.94033679177069 56.2404592899794 108.39928668383475 0 0 0
41 14 2 -0.35 11.239317386261632 55.899627344234894 109.25835907767576 0 0 0
42 14 2 -0.35 12.641356197279748 56.5812912357239 107.54021428999373 0 0 0
43 15 1 0.7 116.81129521076163 122.43860727056796 75.67239643571544 0 0 0
44 15 2 -0.35 116.02465813354783 122.44472223872816 74.81989147038273 0 0 0
45 15 2 -0.35 117.59793228797542 122.43249230240775 76.52490140104815 0 0 0
46 16 1 0.7 75.9668950694459 25.60543217724442 100.49860294698674 0 0 0
47 16 2 -0.35 74.817367765825 25.455256853848873 100.45817584626089 0 0 0
48 16 2 -0.35 77.1164223730668 25.755607500639968 100.53903004771259 0 0 0
49 17 1 0.7 80.01973000588815 16.602208962013112 33.32602455435602 0 0 0
50 17 2 -0.35 79.04800353591085 17.173897731857053 33.599007370628 0 0 0
51 17 2 -0.35 80.99145647586545 16.03052019216917 33.05304173808403 0 0 0
52 18 1 0.7 110.4946850615063 84.17182873663113 50.925576559233285 0 0 0
53 18 2 -0.35 109.67904652461783 84.79361419007607 50.383620263000175 0 0 0
54 18 2 -0.35 111.31032359839477 83.55004328318618 51.467532855466395 0 0 0
55 19 1 0.7 31.16523103377094 44.03798458820115 21.40697389673766 0 0 0
56 19 2 -0.35 30.985490395262953 44.34960318995576 20.304165141826253 0 0 0
57 19 2 -0.35 31.344971672278927 43.72636598644654 22.50978265164907 0 0 0
58 20 1 0.7 37.01028246991815 31.81747191437402 6.250464884215251 0 0 0
59 20 2 -0.35 37.93074159634903 31.75278003794448 6.953437115312703 0 0 0
60 20 2 -0.35 36.089823343487275 31.882163790803563 5.5474926531178 0 0 0
61 21 1 0.7 51.563309005723944 124.53445920233357 50.655813620265484 0 0 0
62 21 2 -0.35 52.372945676853 123.8059887172998 51.055086976749145 0 0 0
63 21 2 -0.35 50.75367233459489 0.2629296873673326 50.25654026378182 0 1 0
64 22 1 0.7 122.25951580203116 65.6820847376632 43.79818590534766 0 0 0
65 22 2 -0.35 121.33421078950136 64.99771133572975 43.653121504086606 0 0 0
66 22 2 -0.35 123.18482081456096 66.36645813959666 43.94325030660871 0 0 0
67 23 1 0.7 116.11051117820223 94.3613720449439 56.579959372328574 0 0 0
68 23 2 -0.35 116.8731499234487 94.96108358532908 55.94409129436134 0 0 0
69 23 2 -0.35 115.34787243295577 93.76166050455873 57.215827450295805 0 0 0
70 24 1 0.7 64.37717072636688 112.10839804825764 80.84599706616532 0 0 0
71 24 2 -0.35 63.55773301120695 112.84827486258095 81.20195230295818 0 0 0
72 24 2 -0.35 65.19660844152682 111.36852123393433 80.49004182937247 0 0 0
73 25 1 0.7 28.672691040519947 26.918318018744845 41.17094104465607 0 0 0
74 25 2 -0.35 27.628870373591756 26.43495176011272 41.021289865878316 0 0 0
75 25 2 -0.35 29.716511707448138 27.40168427737697 41.32059222343382 0 0 0
76 26 1 0.7 85.0061375345132 73.15354256339072 116.58986290758004 0 0 0
77 26 2 -0.35 83.92507139109581 73.45045088841269 116.29196789236613 0 0 0
78 26 2 -0.35 86.08720367793059 72.85663423836874 116.88775792279395 0 0 0
79 27 1 0.7 25.825887697667763 55.694534702084276 58.04473793043044 0 0 0
80 27 2 -0.35 24.979203076603678 55.62029812961126 57.255298836034285 0 0 0
81 27 2 -0.35 26.67257231873185 55.768771274557295 58.8341770248266 0 0 0
82 28 1 0.7 57.9103967444554 50.03808406183407 115.07882724519764 0 0 0
83 28 2 -0.35 57.080100015151615 50.5926363742504 115.66931778204065 0 0 0
84 28 2 -0.35 58.74069347375918 49.48353174941774 114.48833670835464 0 0 0
85 29 1 0.7 4.849510036804485 5.715188572981948 55.174346107605075 0 0 0
86 29 2 -0.35 3.6901373619629405 5.739982397158635 55.203333468876096 0 0 0
87 29 2 -0.35 6.00888271164603 5.69039474880526 55.145358746334054 0 0 0
88 30 1 0.7 65.2350305184885 30.157924236337617 114.23264012636274 0 0 0
89 30 2 -0.35 64.31520502915218 30.20695854836609 113.52757509006388 0 0 0
90 30 2 -0.35 66.15485600782482 30.108889924309146 114.9377051626616 0 0 0
91 31 1 0.7 32.98260377858887 88.62170674308283 90.02523099306282 0 0 0
92 31 2 -0.35 33.29478392022282 87.63616473070488 89.49906514372685 0 0 0
93 31 2 -0.35 32.670423636954915 89.60724875546077 90.55139684239879 0 0 0
94 32 1 0.7 54.05730040700049 41.04794045726207 17.735265203628348 0 0 0
95 32 2 -0.35 53.265929132536385 40.200485709085775 17.701324730053003 0 0 0
96 32 2 -0.35 54.848671681464594 41.89539520543837 17.769205677203693 0 0 0
97 33 1 0.7 76.6022773816261 79.47595298964342 2.341896936922286 0 0 0
98 33 2 -0.35 75.46114586953442 79.31258722801769 2.4712433711205546 0 0 0
99 33 2 -0.35 77.74340889371777 79.63931875126914 2.2125505027240178 0 0 0
100 34 1 0.7 110.2618188528632 45.389460071637046 110.65542400379452 0 0 0
101 34 2 -0.35 109.2632012295852 45.33705245278322 110.06753261589648 0 0 0
102 34 2 -0.35 111.2604364761412 45.441867690490874 111.24331539169256 0 0 0
103 35 1 0.7 35.711231774516044 73.67243429118416 87.60313193202164 0 0 0
104 35 2 -0.35 34.565020213790184 73.85063638184846 87.59656893413467 0 0 0
105 35 2 -0.35 36.8574433352419 73.49423220051986 87.60969492990861 0 0 0
106 36 1 0.7 95.83838148780092 5.677665470017895 49.52355459077449 0 0 0
107 36 2 -0.35 94.85774869054443 5.1228172761166535 49.79942194779493 0 0 0
108 36 2 -0.35 96.8190142850574 6.2325136639191365 49.24768723375404 0 0 0
109 37 1 0.7 92.38200714689773 39.39411791013279 96.93971560194144 0 0 0
110 37 2 -0.35 91.22280048359379 39.391538905858404 96.8968990106634 0 0 0
111 37 2 -0.35 93.54121381020168 39.39669691440718 96.98253219321948 0 0 0
112 38 1 0.7 15.800121829751934 52.647592640783444 98.08951364741172 0 0 0
113 38 2 -0.35 15.843109938729638 53.25687482548943 97.10334568915795 0 0 0
114 38 2 -0.35 15.75713372077423 52.038310456077454 99.0756816056655 0 0 0
115 39 1 0.7 90.45587204883614 41.84152478903603 105.50712932856155 0 0 0
116 39 2 -0.35 89.66728518443273 41.12695379714215 105.04548113476653 0 0 0
117 39 2 -0.35 91.24445891323955 42.55609578092991 105.96877752235656 0 0 0
118 40 1 0.7 8.322625133824827 3.36062419384747 107.01082599442955 0 0 0
119 40 2 -0.35 8.070946874333462 3.40120508475932 108.14246694676036 0 0 0
120 40 2 -0.35 8.574303393316193 3.32004330293562 105.87918504209874 0 0 0
121 41 1 0.7 30.952488377668192 93.47216346928485 111.65142827045705 0 0 0
122 41 2 -0.35 30.43145594692813 94.22488474328792 110.93901273877607 0 0 0
123 41 2 -0.35 31.473520808408256 92.71944219528179 112.36384380213802 0 0 0
124 42 1 0.7 25.554941571576027 1.9029934783014437 108.61138981236675 0 0 0
125 42 2 -0.35 24.412321241434313 1.736512995226031 108.72230883644207 0 0 0
126 42 2 -0.35 26.69756190171774 2.0694739613768562 108.50047078829144 0 0 0
127 43 1 0.7 56.62857644801427 6.48436177591065 107.66836773029918 0 0 0
128 43 2 -0.35 57.73363602002178 6.5421280830786435 107.3203642876858 0 0 0
129 43 2 -0.35 55.52351687600677 6.426595468742657 108.01637117291256 0 0 0
130 44 1 0.7 82.25644313835373 109.0398263111896 7.360812163614115 0 0 0
131 44 2 -0.35 81.63566428269932 109.92214811790521 6.934500256946578 0 0 0
132 44 2 -0.35 82.87722199400814 108.15750450447399 7.787124070281653 0 0 0
133 45 1 0.7 88.17003386242781 123.75912582443986 19.6277313607874 0 0 0
134 45 2 -0.35 87.04806927302698 123.5271325070475 19.80932034948416 0 0 0
135 45 2 -0.35 89.29199845182865 123.99111914183223 19.44614237209064 0 0 0
136 46 1 0.7 8.280980753843199 53.44352984262795 100.40606504790766 0 0 0
137 46 2 -0.35 7.973231881394954 53.10080069829815 101.47069050558459 0 0 0
138 46 2 -0.35 8.588729626291444 53.786258986957755 99.34143959023073 0 0 0
139 47 1 0.7 24.73526018426533 100.51791694737874 29.630134594454493 0 0 0
140 47 2 -0.35 24.011650246510754 100.66617670744257 30.524566090729436 0 0 0
141 47 2 -0.35 25.458870122019903 100.3696571873149 28.73570309817955 0 0 0
142 48 1 0.7 118.67212899665913 22.472046850003323 62.69140800586502 0 0 0
143 48 2 -0.35 117.66208064936134 21.907069315454734 62.77016536473658 0 0 0
144 48 2 -0.35 119.68217734395691 23.037024384551913 62.612650646993465 0 0 0
145 49 1 0.7 29.494354573308655 86.61731359857009 27.189651167574176 0 0 0
146 49 2 -0.35 29.674526344524548 85.72657918202626 26.46872791781645 0 0 0
147 49 2 -0.35 29.314182802092763 87.50804801511393 27.9105744173319 0 0 0
148 50 1 0.7 101.467173419179 108.78365614161997 76.90877220682276 0 0 0
149 50 2 -0.35 100.79738130378797 107.99103612636881 77.4271659120153 0 0 0
150 50 2 -0.35 102.13696553457004 109.57627615687113 76.39037850163022 0 0 0
151 51 1 0.7 105.73448007029224 79.40654140170967 85.74133853462587 0 0 0
152 51 2 -0.35 104.91057030363115 79.9614800277622 86.34035090320887 0 0 0
153 51 2 -0.35 106.55838983695332 78.85160277565714 85.14232616604286 0 0 0
154 52 1 0.7 54.67675145700423 77.16173787003464 107.32838167218883 0 0 0
155 52 2 -0.35 54.62560499770008 76.00289771993076 107.33695758076263 0 0 0
156 52 2 -0.35 54.72789791630838 78.32057802013853 107.31980576361502 0 0 0
157 53 1 0.7 118.11076447745356 87.61857256182402 105.34904657646503 0 0 0
158 53 2 -0.35 117.07109311603374 87.54072786934785 104.84049602431043 0 0 0
159 53 2 -0.35 119.15043583887338 87.6964172543002 105.85759712861963 0 0 0
160 54 1 0.7 101.42581064786101 38.59955860003809 117.78139084008588 0 0 0
161 54 2 -0.35 100.70560037266623 39.469026995612644 118.04770244066094 0 0 0
162 54 2 -0.35 102.1460209230558 37.73009020446353 117.51507923951081 0 0 0
163 55 1 0.7 51.83584932323352 80.11957558575997 69.70686986795945 0 0 0
164 55 2 -0.35 51.012605561689874 79.95265380527475 70.50687413562252 0 0 0
165 55 2 -0.35 52.65909308477716 80.2864973662452 68.90686560029638 0 0 0
166 56 1 0.7 63.36187079472555 47.96244695222119 104.84592598157279 0 0 0
167 56 2 -0.35 62.22281480916042 47.90756857610003 104.63346463077563 0 0 0
168 56 2 -0.35 64.50092678029068 48.01732532834235 105.05838733236995 0 0 0
169 57 1 0.7 20.47797229396085 48.280344599988474 72.75169200624885 0 0 0
170 57 2 -0.35 19.369630218976063 48.34810009051394 72.41615208564018 0 0 0
171 57 2 -0.35 21.586314368945636 48.21258910946301 73.08723192685751 0 0 0
172 58 1 0.7 112.68754902420918 64.63644988352267 94.81319236560408 0 0 0
173 58 2 -0.35 113.06059681619959 63.627795227665274 95.24799246922444 0 0 0
174 58 2 -0.35 112.31450123221876 65.64510453938007 94.37839226198372 0 0 0
175 59 1 0.7 25.324088707717177 121.95891060259143 13.41049775407207 0 0 0
176 59 2 -0.35 25.06805165049631 120.90214616247853 13.006401300929316 0 0 0
177 59 2 -0.35 25.580125764938042 123.01567504270433 13.814594207214824 0 0 0
178 60 1 0.7 15.235752689296264 67.29544900231784 34.61138195572951 0 0 0
179 60 2 -0.35 14.215944961536277 67.03018130719282 34.12638169972538 0 0 0
180 60 2 -0.35 16.25556041705625 67.56071669744286 35.09638221173365 0 0 0
181 61 1 0.7 88.49652994586924 111.1788002244098 82.09537165569859 0 0 0
182 61 2 -0.35 87.42615453956957 111.47348908550008 82.43160812715598 0 0 0
183 61 2 -0.35 89.56690535216892 110.88411136331952 81.75913518424119 0 0 0
184 62 1 0.7 26.91141732591736 50.19099669307051 60.081420436073756 0 0 0
185 62 2 -0.35 27.475470121420116 51.00210781049952 60.68932108508525 0 0 0
186 62 2 -0.35 26.347364530414602 49.3798855756415 59.473519787062266 0 0 0
187 63 1 0.7 38.43326909161791 72.95362282216252 6.538772085466782 0 0 0
188 63 2 -0.35 37.369400294352786 73.37881223240531 6.357120915299735 0 0 0
189 63 2 -0.35 39.49713788888303 72.52843341191972 6.720423255633829 0 0 0
190 64 1 0.7 22.142440440199543 22.996478433719126 1.813035517378261 0 0 0
191 64 2 -0.35 22.182687769871606 23.903617846737625 1.0911780260389228 0 0 0
192 64 2 -0.35 22.10219311052748 22.089339020700628 2.5348930087175994 0 0 0
193 65 1 0.7 96.68794057643412 34.21726812804922 89.62542812322519 0 0 0
194 65 2 -0.35 96.95794882871606 33.60346180537348 90.57196779061528 0 0 0
195 65 2 -0.35 96.41793232415218 34.83107445072496 88.67888845583511 0 0 0
196 66 1 0.7 84.57046704579632 0.8396386987714277 111.80761025138554 0 0 0
197 66 2 -0.35 83.82765964322509 1.066466258302854 110.9459917621907 0 0 0
198 66 2 -0.35 85.31327444836755 0.6128111392400016 112.66922874058038 0 0 0
199 67 1 0.7 25.50549503672193 45.855082185405806 61.36629011545623 0 0 0
200 67 2 -0.35 25.10926953541134 44.86373734514638 60.91259334469167 0 0 0
201 67 2 -0.35 25.901720538032517 46.84642702566523 61.81998688622079 0 0 0
202 68 1 0.7 8.237970472889938 80.56973786119825 10.58423315900575 0 0 0
203 68 2 -0.35 7.583272514238122 81.23544089104976 9.895894536681194 0 0 0
204 68 2 -0.35 8.892668431541754 79.90403483134673 11.272571781330306 0 0 0
205 69 1 0.7 14.206703409648828 22.06420596785108 83.10970167308567 0 0 0
206 69 2 -0.35 13.104334640550722 22.120416118907837 83.46638572912869 0 0 0
207 69 2 -0.35 15.309072178746934 22.007995816794324 82.75301761704264 0 0 0
208 70 1 0.7 74.75601955072769 49.420589080276244 111.84067220279978 0 0 0
209 70 2 -0.35 73.64224918188256 49.498705385975946 111.5260082419361 0 0 0
210 70 2 -0.35 75.86978991957281 49.34247277457654 112.15533616366346 0 0 0
211 71 1 0.7 81.1777124559403 103.81324698860443 39.242137474586315 0 0 0
212 71 2 -0.35 82.22103362652275 103.37417099612479 39.49569852806746 0 0 0
213 71 2 -0.35 80.13439128535784 104.25232298108408 38.98857642110517 0 0 0
214 72 1 0.7 42.60453537227797 54.42600187585968 112.81352757374455 0 0 0
215 72 2 -0.35 41.447290903370245 54.44428470198309 112.89131560271697 0 0 0
216 72 2 -0.35 43.7617798411857 54.40771904973628 112.73573954477213 0 0 0
217 73 1 0.7 56.95793192459174 41.96185661338357 2.924101137520793 0 0 0
218 73 2 -0.35 56.90604478405926 43.05583138593272 3.306366649532266 0 0 0
219 73 2 -0.35 57.00981906512422 40.867881840834414 2.5418356255093197 0 0 0
220 74 1 0.7 20.367818311959418 71.92236910197994 49.257496976879196 0 0 0
221 74 2 -0.35 19.218467566764083 72.0179843150425 49.133196552302564 0 0 0
222 74 2 -0.35 21.517169057154753 71.82675388891738 49.38179740145583 0 0 0
223 75 1 0.7 120.75169040856495 98.66069675128008 65.3302987643193 0 0 0
224 75 2 -0.35 120.21440053970001 97.96837284447521 64.57029402428044 0 0 0
225 75 2 -0.35 121.2889802774299 99.35302065808496 66.09030350435815 0 0 0
226 76 1 0.7 6.331331914445074 35.69548607836268 59.034519041438834 0 0 0
227 76 2 -0.35 7.2887461463708085 36.02415544795561 59.60102979508561 0 0 0
228 76 2 -0.35 5.373917682519339 35.36681670876975 58.46800828779206 0 0 0
229 77 1 0.7 68.16152946239409 90.82567445739437 7.110605427115506 0 0 0
230 77 2 -0.35 67.34199894375148 91.43118167914803 6.55623124534155 0 0 0
231 77 2 -0.35 68.9810599810367 90.22016723564072 7.664979608889462 0 0 0
232 78 1 0.7 7.945413530313138 38.56520397288967 40.383172356702005 0 0 0
233 78 2 -0.35 8.08136611885931 38.05794555736066 39.348858190917454 0 0 0
234 78 2 -0.35 7.809460941766965 39.07246238841868 41.417486522486556 0 0 0
235 79 1 0.7 94.97779909054645 41.869314814391224 72.57408547335028 0 0 0
236 79 2 -0.35 94.06486200145827 41.24549773997113 72.22337458240287 0 0 0
237 79 2 -0.35 95.89073617963464 42.49313188881132 72.92479636429769 0 0 0
238 80 1 0.7 2.654550598307769 115.03190575867514 91.24008605314422 0 0 0
239 80 2 -0.35 3.5896599472387916 114.43879132772493 91.58560852323902 0 0 0
240 80 2 -0.35 1.7194412493767466 115.62502018962535 90.89456358304943 0 0 0
241 81 1 0.7 97.12629519501995 26.643342700155145 44.66076150753571 0 0 0
242 81 2 -0.35 96.38229146769909 27.479130019876834 44.96656865252272 0 0 0
243 81 2 -0.35 97.87029892234081 25.807555380433456 44.3549543625487 0 0 0
244 82 1 0.7 113.41865715264281 102.37076446757222 45.43840648626835 0 0 0
245 82 2 -0.35 113.69405600044456 101.3310667672363 45.87289948568914 0 0 0
246 82 2 -0.35 113.14325830484105 103.41046216790814 45.00391348684756 0 0 0
247 83 1 0.7 58.297814712067044 61.3718657108824 101.9470028006225 0 0 0
248 83 2 -0.35 57.4145370503498 61.42048962865807 101.1966320343133 0 0 0
249 83 2 -0.35 59.18109237378429 61.32324179310674 102.6973735669317 0 0 0
250 84 1 0.7 48.276070062199636 0.9095353893514422 36.561288829688586 0 0 0
251 84 2 -0.35 49.42717647243182 0.7662001093040374 36.55828386444408 0 0 0
252 84 2 -0.35 47.124963651967455 1.052870669398847 36.56429379493309 0 0 0
253 85 1 0.7 110.58136057601374 40.92720106287263 113.46826370035683 0 0 0
254 85 2 -0.35 111.48733819093317 40.247101257637176 113.21872649634992 0 0 0
255 85 2 -0.35 109.6753829610943 41.60730086810809 113.71780090436374 0 0 0
256 86 1 0.7 61.10801189723797 42.35595687867885 1.5672599554840754 0 0 0
257 86 2 -0.35 60.47266124158662 42.67109713830919 2.485201217833427 0 0 0
258 86 2 -0.35 61.74336255288932 42.04081661904851 0.6493186931347239 0 0 0
259 87 1 0.7 90.9380718208561 21.173093128564343 106.17621178095052 0 0 0
260 87 2 -0.35 90.62463638998294 20.664054299836263 107.17031323529032 0 0 0
261 87 2 -0.35 91.25150725172925 21.682131957292423 105.18211032661073 0 0 0
262 88 1 0.7 3.591402435484995 110.70073319631662 47.22283049357256 0 0 0
263 88 2 -0.35 3.5960531619835336 110.44187616578536 46.092091174150276 0 0 0
264 88 2 -0.35 3.5867517089864567 110.95959022684788 48.35356981299484 0 0 0
265 89 1 0.7 49.1121054739282 52.156700311301606 97.66213204602809 0 0 0
266 89 2 -0.35 48.336010813822796 52.64936513142798 96.95463048873954 0 0 0
267 89 2 -0.35 49.88820013403361 51.664035491175234 98.36963360331664 0 0 0
268 90 1 0.7 32.45329759430759 67.57266752774485 68.82313880781788 0 0 0
269 90 2 -0.35 33.20743546854821 66.79691282665141 69.24156527730474 0 0 0
270 90 2 -0.35 31.69915972006697 68.3484222288383 68.40471233833102 0 0 0
271 91 1 0.7 85.49394299532005 21.69992234404195 85.5948363130888 0 0 0
272 91 2 -0.35 84.4879250017038 21.501429961242472 85.0525000977289 0 0 0
273 91 2 -0.35 86.49996098893631 21.89841472684143 86.13717252844872 0 0 0
274 92 1 0.7 92.41391408369593 75.65400467750337 16.856614799171975 0 0 0
275 92 2 -0.35 91.52793439249388 75.36150726756118 17.545879082269995 0 0 0
276 92 2 -0.35 93.29989377489798 75.94650208744555 16.167350516073956 0 0 0
277 93 1 0.7 59.12492968334115 87.69318791464585 109.40928145284265 0 0 0
278 93 2 -0.35 57.96593366078229 87.64599959875673 109.4193553069356 0 0 0
279 93 2 -0.35 60.28392570590001 87.74037623053496 109.3992075987497 0 0 0
280 94 1 0.7 91.79337792647695 21.302810297954274 36.33267771747554 0 0 0
281 94 2 -0.35 91.8828329847491 20.64051305021995 37.280812807108376 0 0 0
282 94 2 -0.35 91.7039228682048 21.965107545688596 35.384542627842706 0 0 0
283 95 1 0.7 18.314397611336037 60.08065372476384 25.54715210597364 0 0 0
284 95 2 -0.35 17.16350584151971 59.941959939935586 25.589721675140552 0 0 0
285 95 2 -0.35 19.465289381152363 60.2193475095921 25.50458253680673 0 0 0
286 96 1 0.7 120.98544509894468 27.375777963258223 104.70022848094824 0 0 0
287 96 2 -0.35 120.36726431871296 27.710903882256417 105.62280267382799 0 0 0
288 96 2 -0.35 121.6036258791764 27.040652044260028 103.77765428806849 0 0 0
289 97 1 0.7 71.74007929709744 110.51274631661956 12.727343425027719 0 0 0
290 97 2 -0.35 71.73208164860692 110.97421400301194 11.663114308702538 0 0 0
291 97 2 -0.35 71.74807694558795 110.05127863022717 13.7915725413529 0 0 0
292 98 1 0.7 33.46094444089613 3.0932181412788196 112.71730047311509 0 0 0
293 98 2 -0.35 33.16949403283714 2.5094612010014163 113.67640656438978 0 0 0
294 98 2 -0.35 33.75239484895511 3.6769750815562228 111.7581943818404 0 0 0
295 99 1 0.7 64.66905164516952 17.75100036419509 91.0631210268769 0 0 0
296 99 2 -0.35 63.5717500275913 17.47534856348265 90.80710297121632 0 0 0
297 99 2 -0.35 65.76635326274773 18.026652164907528 91.31913908253748 0 0 0
298 100 1 0.7 122.87509872013474 36.78418930470207 106.86964412772545 0 0 0
299 100 2 -0.35 122.60750820045355 37.90106282560086 106.70658324310907 0 0 0
300 100 2 -0.35 123.14268923981594 35.667315783803275 107.03270501234184 0 0 0
301 101 1 0.7 33.108854681769785 85.52063650475844 95.33773547519824 0 0 0
302 101 2 -0.35 32.23771857867737 85.42526853191461 94.57771781774244 0 0 0
303 101 2 -0.35 33.9799907848622 85.61600447760227 96.09775313265405 0 0 0
304 102 1 0.7 91.32013165686286 67.4527568940319 53.48511799400911 0 0 0
305 102 2 -0.35 92.41545208768973 67.83460592000817 53.477088350541855 0 0 0
306 102 2 -0.35 90.22481122603598 67.07090786805561 53.49314763747636 0 0 0
307 103 1 0.7 49.378125311051555 23.15210284346347 117.39249009051942 0 0 0
308 103 2 -0.35 48.35202213168831 22.612424323570092 117.35428851376754 0 0 0
309 103 2 -0.35 50.4042284904148 23.69178136335685 117.43069166727129 0 0 0
310 104 1 0.7 15.58095135985918 119.04950515322831 115.03311030801065 0 0 0
311 104 2 -0.35 14.421356501805587 119.07134526866447 115.01159811301801 0 0 0
312 104 2 -0.35 16.740546217912772 119.02766503779215 115.05462250300329 0 0 0
313 105 1 0.7 111.48494673496343 102.49977453029705 88.71053070235556 0 0 0
314 105 2 -0.35 110.60500353553219 103.14583328179978 88.318219530731 0 0 0
315 105 2 -0.35 112.36488993439467 101.85371577879431 89.10284187398011 0 0 0
316 106 1 0.7 82.88951448997926 124.07003308137413 120.04599865528102 0 0 0
317 106 2 -0.35 81.75948541651343 123.99145926318742 119.79607777136475 0 0 0
318 106 2 -0.35 84.0195435634451 124.14860689956085 120.2959195391973 0 0 0
319 107 1 0.7 113.09939930825466 111.60417383611397 106.34966356742646 0 0 0
320 107 2 -0.35 113.79839182143178 110.68669579581407 106.47312818620368 0 0 0
321 107 2 -0.35 112.40040679507754 112.52165187641387 106.22619894864924 0 0 0
322 108 1 0.7 43.79557773647624 72.27501695615939 101.20998217082115 0 0 0
323 108 2 -0.35 44.94663054100707 72.31934353881076 101.34677615918379 0 0 0
324 108 2 -0.35 42.64452493194541 72.23069037350803 101.07318818245851 0 0 0
325 109 1 0.7 36.17034499122312 39.98826748690953 82.81165248845315 0 0 0
326 109 2 -0.35 35.022437330606316 40.08946495300748 82.678734936743 0 0 0
327 109 2 -0.35 37.31825265183992 39.88707002081158 82.9445700401633 0 0 0
328 110 1 0.7 65.44337343212374 31.777273703728465 80.63913856429939 0 0 0
329 110 2 -0.35 66.2146162096964 32.5424901038249 81.04562157632505 0 0 0
330 110 2 -0.35 64.67213065455107 31.012057303632023 80.23265555227373 0 0 0
331 111 1 0.7 52.00185017986309 120.09597295899688 78.01752186055181 0 0 0
332 111 2 -0.35 51.16299841307283 120.38873102092579 78.76332373137842 0 0 0
333 111 2 -0.35 52.840701946653354 119.80321489706797 77.2717199897252 0 0 0
334 112 1 0.7 115.48991029406427 38.92231233833465 42.30347039052447 0 0 0
335 112 2 -0.35 114.61468003454739 38.20749189397032 42.56539351883653 0 0 0
336 112 2 -0.35 116.36514055358116 39.63713278269898 42.041547262212404 0 0 0
337 113 1 0.7 119.4268535447432 82.12752649892472 67.33786742777464 0 0 0
338 113 2 -0.35 118.4347023737977 82.70428841337991 67.50692880132124 0 0 0
339 113 2 -0.35 120.41900471568869 81.55076458446953 67.16880605422804 0 0 0
340 114 1 0.7 122.53785860842925 118.7896318704773 122.34284711179457 0 0 0
341 114 2 -0.35 121.45520103910873 118.52726259447715 122.01940476669404 0 0 0
342 114 2 -0.35 123.62051617774976 119.05200114647744 122.6662894568951 0 0 0
343 115 1 0.7 91.23140793118226 76.27309938020683 46.9812831361691 0 0 0
344 115 2 -0.35 92.14503281220139 76.40744582613284 46.27925706168908 0 0 0
345 115 2 -0.35 90.31778305016313 76.13875293428082 47.683309210649114 0 0 0
346 116 1 0.7 114.42566959393474 27.22886526129621 10.53844660545627 0 0 0
347 116 2 -0.35 114.6547488564432 26.15383291552769 10.167733580273696 0 0 0
348 116 2 -0.35 114.19659033142628 28.30389760706473 10.909159630638845 0 0 0
349 117 1 0.7 119.67209790352364 78.94946452181296 28.650218110368687 0 0 0
350 117 2 -0.35 119.8626218656665 78.83778235671687 27.511434674482462 0 0 0
351 117 2 -0.35 119.48157394138077 79.06114668690904 29.789001546254912 0 0 0
352 118 1 0.7 24.21578096655001 119.6307048060143 8.25567468221098 0 0 0
353 118 2 -0.35 23.061189129648703 119.70349720527172 8.3406391263698 0 0 0
354 118 2 -0.35 25.370372803451318 119.55791240675687 8.17071023805216 0 0 0
355 119 1 0.7 3.1243839199302643 11.520542267952367 0.7538974754297628 0 0 0
356 119 2 -0.35 4.121479643717384 11.947158565050277 1.1654781511859351 0 0 0
357 119 2 -0.35 2.127288196143145 11.093925970854457 0.3423167996735905 0 0 0
358 120 1 0.7 45.75486954802408 2.0924936407676404 43.54062038172997 0 0 0
359 120 2 -0.35 45.102816162319805 1.2080717304961799 43.91240562461001 0 0 0
360 120 2 -0.35 46.40692293372836 2.976915551039101 43.168835138849936 0 0 0
361 121 1 0.7 37.206755735542046 83.94364725516347 90.87941753253314 0 0 0
362 121 2 -0.35 36.16141631197019 83.46286397875397 91.02677061411416 0 0 0
363 121 2 -0.35 38.2520951591139 84.42443053157297 90.73206445095212 0 0 0
364 122 1 0.7 35.370469284416394 96.47726318634919 118.36237297084293 0 0 0
365 122 2 -0.35 34.417325980388846 95.88702097534444 118.06449384378688 0 0 0
366 122 2 -0.35 36.32361258844394 97.06750539735394 118.66025209789898 0 0 0
367 123 1 0.7 66.40252095712466 27.169726394195912 16.591507250718543 0 0 0
368 123 2 -0.35 66.39352908144886 27.70410794176545 15.561965844174338 0 0 0
369 123 2 -0.35 66.41151283280047 26.635344846626374 17.621048657262747 0 0 0
370 124 1 0.7 103.46236282655148 16.93202585071885 76.55847303176228 0 0 0
371 124 2 -0.35 102.31028529857552 17.029165756597255 76.65271319421298 0 0 0
372 124 2 -0.35 104.61444035452745 16.834885944840448 76.46423286931157 0 0 0
373 125 1 0.7 93.25624482857819 107.7068339137858 103.75758899783604 0 0 0
374 125 2 -0.35 92.37727533173997 108.08652641071592 103.10272547663263 0 0 0
375 125 2 -0.35 94.13521432541641 107.32714141685568 104.41245251903945 0 0 0
376 126 1 0.7 103.79828663021247 37.80339398086229 111.64263635251794 0 0 0
377 126 2 -0.35 103.15415399327144 36.90783794193859 112.00134588288292 0 0 0
378 126 2 -0.35 104.44241926715351 38.69895001978599 111.28392682215296 0 0 0
379 127 1 0.7 2.7891767689907816 2.6939564280649444 27.3256864875209 0 0 0
380 127 2 -0.35 2.4387146386596372 3.6437402094211824 27.89197887125602 0 0 0
381 127 2 -0.35 3.139638899321926 1.7441726467087064 26.759394103785784 0 0 0
382 128 1 0.7 12.812795763748138 94.65840131494143 48.75090022047558 0 0 0
383 128 2 -0.35 11.904356970131717 94.13438592597714 48.25517163507693 0 0 0
384 128 2 -0.35 13.721234557364559 95.18241670390572 49.24662880587423 0 0 0
385 129 1 0.7 106.38000553305261 53.75299401523219 51.570414007441336 0 0 0
386 129 2 -0.35 105.31950157309576 54.21780059840562 51.640315303241024 0 0 0
387 129 2 -0.35 107.44050949300946 53.28818743205876 51.50051271164165 0 0 0
388 130 1 0.7 118.9482230664921 37.78507853289371 53.81490234463238 0 0 0
389 130 2 -0.35 117.87838373900138 37.558883057963385 53.4277597088052 0 0 0
390 130 2 -0.35 120.01806239398283 38.01127400782404 54.20204498045956 0 0 0
391 131 1 0.7 92.06370623645545 64.71071610679417 93.00560688972733 0 0 0
392 131 2 -0.35 91.33367861123786 63.921361807659096 93.44101412078368 0 0 0
393 131 2 -0.35 92.79373386167303 65.50007040592924 92.57019965867099 0 0 0