LAMMPS data file via write_data, version 29 Aug 2024, timestep = 4000000, units = real

1500 atoms
2 atom types
1000 bonds
1 bond types
500 angles
1 angle types

0 125 xlo xhi
0 125 ylo yhi
0 125 zlo zhi

Masses

1 12.0107
2 15.9994

PairIJ Coeffs # lj/cut/coul/long/gpu

1 1 0.053649 2.8 12
1 2 0.0917684 2.925 12
2 2 0.156973 3.05 12

Bond Coeffs # harmonic

1 0 1.16

Angle Coeffs # harmonic

1 0 180

Atoms # full

981 327 2 -0.35 6.430203635460006 10.8527768118567 124.79135058981235 1 -3 1
979 327 1 0.7 6.263897301833475 10.372525047914365 0.8340875876343293 1 -3 2
963 321 2 -0.35 10.127011194734973 9.452692746120551 1.2785310658828757 4 9 10
980 327 2 -0.35 6.097590968206943 9.892273283972031 1.8768245854563 1 -3 2
642 214 2 -0.35 34.6220874948383 5.679080751884125 11.395517495387782 -1 0 0
640 214 1 0.7 34.18275922721324 5.127287076164079 12.316448770077677 -1 0 0
641 214 2 -0.35 33.74343095958818 4.575493400444034 13.237380044767571 -1 0 0
364 122 1 0.7 49.54335268370335 10.808083227920894 12.791271131611733 4 1 -3
365 122 2 -0.35 48.534266959739334 11.371730790237029 12.69304981423986 4 1 -3
366 122 2 -0.35 50.55243840766735 10.244435665604762 12.889492448983608 4 1 -3
69 23 2 -0.35 56.33064513653984 17.282363213801933 3.072954108478506 3 -5 2
68 23 2 -0.35 54.322107590064 16.787153615811615 2.0227425210096155 3 -5 2
67 23 1 0.7 55.326376363301925 17.034758414806774 2.5478483147440607 3 -5 2
107 36 2 -0.35 74.80216067610641 19.88740022695011 15.293019905163684 -3 5 2
106 36 1 0.7 74.05452888193012 19.01387545476005 15.139393173413312 -3 5 2
108 36 2 -0.35 73.30689708775384 18.14035068256999 14.985766441662939 -3 5 2
291 97 2 -0.35 91.76763649369443 5.329942213305871 3.5888937058349 -1 4 0
289 97 1 0.7 91.08863490872581 6.257856239686188 3.742296467402869 -1 4 0
290 97 2 -0.35 90.4096333237572 7.185770266066504 3.8956992289708374 -1 4 0
1076 359 2 -0.35 92.5434349306171 15.968386970341989 11.798189216069487 4 -9 -3
1075 359 1 0.7 92.01700346273635 16.505418951325343 12.681402984658884 4 -9 -3
1077 359 2 -0.35 91.4905719948556 17.042450932308697 13.56461675324828 4 -9 -3
1364 455 2 -0.35 99.39196024365704 16.398275838426418 0.3688677496898477 5 0 -6
1363 455 1 0.7 99.61294255473543 17.534029497807477 0.45151424626199477 5 0 -6
1365 455 2 -0.35 99.8339248658138 18.66978315718854 0.5341607428341419 5 0 -6
417 139 2 -0.35 103.61014664999003 13.030855305170185 6.943516073271565 -5 -3 -7
416 139 2 -0.35 101.51959085112384 12.380549927280507 6.176001013277965 -5 -3 -7
415 139 1 0.7 102.56486875055694 12.705702616225345 6.559758543274764 -5 -3 -7
737 246 2 -0.35 103.97482872089003 124.67166931219822 2.3194005001208304 0 -3 6
736 246 1 0.7 104.87649249045968 124.72780217616368 3.047034713326904 0 -3 6
644 215 2 -0.35 18.722121872405065 28.115390998238475 6.596779198832454 -2 3 4
1172 391 2 -0.35 10.368159179093384 24.248291278380684 0.9444496971047874 0 -2 8
645 215 2 -0.35 19.58638347106237 27.82444049138266 4.463518855685855 -2 3 4
643 215 1 0.7 19.15425267173372 27.969915744810567 5.530149027259155 -2 3 4
952 318 1 0.7 14.681143873719927 30.741573788553175 20.085213663244605 -3 0 2
953 318 2 -0.35 15.435253736900616 31.07857910521787 19.270753270841997 -3 0 2
372 124 2 -0.35 26.501507415624182 27.27987628028416 5.9681928016044115 -3 -2 -2
1197 399 2 -0.35 32.85186295182018 38.071038058645705 20.43145318225282 0 2 2
370 124 1 0.7 25.56410193579165 26.902937324191047 5.398291064670868 -3 -2 -2
1195 399 1 0.7 33.995855808234346 37.9566338852939 20.277206530448083 0 2 2
371 124 2 -0.35 24.62669645595912 26.525998368097934 4.828389327737325 -3 -2 -2
1196 399 2 -0.35 35.13984866464851 37.84222971194209 20.122959878643343 0 2 2
87 29 2 -0.35 36.915464300408 29.835956411830693 17.608326406145334 -1 0 1
85 29 1 0.7 37.205268086829136 28.76165913127232 17.280455824419523 -1 0 1
86 29 2 -0.35 37.495071873250275 27.68736185071395 16.952585242693708 -1 0 1
1483 495 1 0.7 39.373823780514776 33.055495971823234 20.45020421829891 -4 -10 -6
1484 495 2 -0.35 38.61342374661687 33.6401764066593 19.797869505465805 -4 -10 -6
1355 452 2 -0.35 47.406903621211235 25.000226210565316 19.729291321064157 -1 -1 1
1356 452 2 -0.35 46.631184045059854 24.10911439429604 17.732649422756086 -1 -1 1
1354 452 1 0.7 47.01904383313554 24.554670302430676 18.73097037191012 -1 -1 1
520 174 1 0.7 77.92805046143052 32.13588564284794 7.931905181736025 0 -4 -6
522 174 2 -0.35 78.4206655872468 31.259720578662858 7.352884354719155 0 -4 -6
521 174 2 -0.35 77.43543533561423 33.01205070703302 8.510926008752895 0 -4 -6
1134 378 2 -0.35 72.75426212687796 28.649439515622184 10.907048004153745 0 3 2
1132 378 1 0.7 72.18904464355539 27.84357747689941 10.293276408939683 0 3 2
1133 378 2 -0.35 71.62382716023282 27.037715438176633 9.67950481372562 0 3 2
591 197 2 -0.35 80.43032190173166 33.04420093567806 13.210149286916112 1 2 3
590 197 2 -0.35 78.1378675699926 33.39472208967161 13.145434084082599 1 2 3
589 197 1 0.7 79.28409473586213 33.21946151267483 13.177791685499354 1 2 3
203 68 2 -0.35 77.3082401285472 23.0166358046553 6.2419162934811165 -6 5 4
204 68 2 -0.35 75.01922831730431 22.639295473935597 6.262873459195109 -6 5 4
202 68 1 0.7 76.16373422292575 22.82796563929545 6.252394876338113 -6 5 4
223 75 1 0.7 87.53833916541889 22.213537618962683 8.190501796325766 4 0 1
225 75 2 -0.35 87.27172926697011 23.24292707215175 8.654049545441815 4 0 1
224 75 2 -0.35 87.80494906386767 21.184148165773614 7.726954047209717 4 0 1
540 180 2 -0.35 86.27163195629267 41.469400304878924 16.944539707192256 1 0 -2
538 180 1 0.7 86.84019223058799 41.664935264441304 15.952518893861395 1 0 -2
1228 410 1 0.7 95.08735014398762 40.354648320365136 9.403556781690364 -2 -1 3
1229 410 2 -0.35 95.18733069553561 39.24379182132304 9.084806522322602 -2 -1 3
534 178 2 -0.35 115.04702143248639 27.321839206265743 9.634623584134083 -6 3 1
532 178 1 0.7 115.18778459235862 28.00210957810118 8.705635987863372 -6 3 1
533 178 2 -0.35 115.32854775223086 28.682379949936617 7.776648391592662 -6 3 1
1065 355 2 -0.35 118.50963572947686 38.719794446627496 11.395267800002866 -2 -3 3
1063 355 1 0.7 117.50666477333257 39.17270495525012 11.028496301231836 -2 -3 3
1064 355 2 -0.35 116.50369381718829 39.62561546387275 10.661724802460807 -2 -3 3
880 294 1 0.7 35.438967420688535 43.03250374711441 13.483505233480356 1 -6 4
882 294 2 -0.35 36.244305429880136 42.356862304724814 13.973953326837135 1 -6 4
881 294 2 -0.35 34.633629411496926 43.708145189504016 12.993057140123577 1 -6 4
240 80 2 -0.35 24.095901589032373 52.34977207714195 2.1613895965577847 -1 -6 -4
238 80 1 0.7 24.466790823542517 52.751187307695005 3.1845743249453737 -1 -6 -4
239 80 2 -0.35 24.837680058052662 53.152602538248054 4.207759053332962 -1 -6 -4
252 84 2 -0.35 35.81057921966394 45.416725829232945 17.843770054702592 -6 0 6
250 84 1 0.7 35.97355583220547 46.55765402022733 17.712158935269322 -6 0 6
251 84 2 -0.35 36.136532444747 47.69858221122171 17.580547815836052 -6 0 6
959 320 2 -0.35 55.581369152325244 56.82540947310644 3.065315786238596 0 -1 0
958 320 1 0.7 55.546083397984596 56.7847473990008 4.224065764133161 0 -1 0
960 320 2 -0.35 55.51079764364395 56.74408532489516 5.3828157420277245 0 -1 0
94 32 1 0.7 49.26836641413589 60.27211695625323 12.521303572072675 2 6 0
95 32 2 -0.35 49.61707956657362 59.63813901195001 11.614622203865135 2 6 0
96 32 2 -0.35 48.91965326169815 60.90609490055645 13.427984940280217 2 6 0
525 175 2 -0.35 63.459703571900164 48.310898107316184 12.80210814183737 0 -4 1
1452 484 2 -0.35 65.18334661335342 60.4836536979561 6.431749889922148 -5 -2 0
1450 484 1 0.7 66.04582144046934 59.746570585289874 6.673505257210702 -5 -2 0
524 175 2 -0.35 62.497892779897235 48.15946825483108 10.696309243520504 0 -4 1
1451 484 2 -0.35 66.90829626758524 59.00948747262365 6.915260624499256 -5 -2 0
523 175 1 0.7 62.9787981758987 48.23518318107364 11.749208692678938 0 -4 1
598 200 1 0.7 68.87788195467792 54.545629381916164 15.239850400746477 -2 0 -1
599 200 2 -0.35 68.33922344369732 53.545293847326455 15.473892761832833 -2 0 -1
600 200 2 -0.35 69.41654046565851 55.54596491650588 15.00580803966012 -2 0 -1
1230 410 2 -0.35 94.98736959243963 41.46550481940723 9.722307041058125 -2 -1 3
539 180 2 -0.35 87.40875250488331 41.86047022400369 14.960498080530533 1 0 -2
1022 341 2 -0.35 90.12913956474974 44.48651388430305 11.388569259381384 1 1 -3
1021 341 1 0.7 89.3386186085617 44.79219212889866 10.59658603442766 1 1 -3
1023 341 2 -0.35 88.54809765237367 45.09787037349427 9.804602809473936 1 1 -3
46 16 1 0.7 92.32830238476915 53.19384879287871 15.31355678946152 6 -2 7
48 16 2 -0.35 92.10654234227573 53.335791495737595 16.443280097470186 6 -2 7
47 16 2 -0.35 92.55006242726256 53.05190609001983 14.183833481452854 6 -2 7
442 148 1 0.7 93.10939134929248 44.5923544705677 0.5365534509270777 -7 7 6
444 148 2 -0.35 93.09525804104483 44.37558995336948 1.6760328907068842 -7 7 6
413 138 2 -0.35 120.11899719707718 60.31603231904927 6.556327354029307 1 -1 -5
412 138 1 0.7 120.68839753897895 59.32699897757245 6.348490157915739 1 -1 -5
414 138 2 -0.35 121.25779788088072 58.33796563609564 6.14065296180217 1 -1 -5
1170 390 2 -0.35 112.72219011464227 57.566350876016166 3.0470203699563942 -5 1 -2
1169 390 2 -0.35 111.66604854457114 57.29050369007184 0.9998581111267202 -5 1 -2
1168 390 1 0.7 112.1941193296067 57.428427283044 2.023439240541557 -5 1 -2
692 231 2 -0.35 5.212992486173082 69.3717225897841 9.758567079101919 2 -1 -2
691 231 1 0.7 4.0629651075205135 69.23089312509309 9.8151717628593 2 -1 -2
693 231 2 -0.35 2.912937728867945 69.09006366040208 9.87177644661668 2 -1 -2
996 332 2 -0.35 28.40927469238288 65.76058107916693 8.964668837769821 -9 -5 -2
995 332 2 -0.35 26.831823057349638 67.11297813607737 9.996690416803405 -9 -5 -2
994 332 1 0.7 27.62054887486626 66.43677960762216 9.480679627286612 -9 -5 -2
1415 472 2 -0.35 45.33790388997565 63.64400423957567 9.057643249533067 1 0 -6
1414 472 1 0.7 44.78012640179173 64.64500560456717 8.87741966350419 1 0 -6
1416 472 2 -0.35 44.222348913607824 65.64600696955868 8.697196077475313 1 0 -6
1298 433 2 -0.35 66.42919488614763 74.58024892820748 1.9126743124115972 -1 -4 6
1299 433 2 -0.35 66.36078047223967 73.67572511346609 4.047986031233732 -1 -4 6
1297 433 1 0.7 66.39498767919365 74.12798702083678 2.980330171822664 -1 -4 6
265 89 1 0.7 82.37792491777122 76.18121145963819 1.242626881390794 0 -2 2
266 89 2 -0.35 81.26005698813677 75.8854605168532 1.3348368143467253 0 -2 2
267 89 2 -0.35 83.4957928474057 76.47696240242317 1.1504169484348625 0 -2 2
168 56 2 -0.35 66.54366635567371 82.54161269159685 14.841722338307244 4 4 -8
166 56 1 0.7 65.80081266597632 81.77740079507319 14.383739180410219 4 4 -8
167 56 2 -0.35 65.05795897627895 81.01318889854953 13.925756022513196 4 4 -8
1222 408 1 0.7 101.55363396237888 62.50193767641975 124.79935909873139 12 -5 -6
1223 408 2 -0.35 101.65988741663665 62.946712289195446 0.8654199540714245 12 -5 -5
1273 425 1 0.7 93.55244987259375 80.64152184176132 0.12430142736069141 3 2 2
1274 425 2 -0.35 93.2359187185498 80.68018379253807 1.2396100313281817 3 2 2
116 39 2 -0.35 97.1533956982404 82.0228266081108 20.268545588547656 -2 -1 0
674 225 2 -0.35 106.92154069044109 68.15080477825668 2.0327229854724793 -1 -2 3
673 225 1 0.7 106.63978439706695 67.06066294142616 1.7537890027146685 -1 -2 3
675 225 2 -0.35 106.3580281036928 65.97052110459563 1.4748550199568577 -1 -2 3
341 114 2 -0.35 9.400325408516142 99.33599855296443 10.088253523771515 6 0 4
340 114 1 0.7 8.792075743518003 98.3782460047277 10.32979524144533 6 0 4
342 114 2 -0.35 8.183826078519864 97.42049345649096 10.571336959119147 6 0 4
19 7 1 0.7 2.184510104167134 95.19995025583742 17.12587355343642 -1 -1 -7
20 7 2 -0.35 2.1705068210209664 95.62973464285835 18.20322646160241 -1 -1 -7
21 7 2 -0.35 2.1985133873133016 94.77016586881649 16.048520645270433 -1 -1 -7
873 291 2 -0.35 20.08064665804594 95.30828344209036 7.335459955341257 3 5 -1
871 291 1 0.7 20.578270239094778 94.29246506775827 7.078392256176642 3 5 -1
888 296 2 -0.35 7.108669911965829 93.04870392966025 0.19990247967153607 5 0 0
872 291 2 -0.35 21.075893820143612 93.27664669342617 6.8213245570120264 3 5 -1
792 264 2 -0.35 41.30159153290944 87.69533228260457 21.019393487737258 3 2 -1
5 2 2 -0.35 62.258375800611915 94.10219974060558 3.85040545181126 -3 2 -3
791 264 2 -0.35 41.833169863627035 89.64606429481486 19.881646110304683 3 2 -1
790 264 1 0.7 41.56738069826824 88.67069828870972 20.45051979902097 3 2 -1
4 2 1 0.7 61.464600910399966 93.55295368567826 3.207093556371255 -3 2 -3
6 2 2 -0.35 60.670826020188024 93.00370763075094 2.56378166093125 -3 2 -3
1216 406 1 0.7 45.50906633400419 90.42982059172773 6.550622751584777 0 0 -5
1217 406 2 -0.35 44.67627455725457 90.05760197731611 5.834025821879025 0 0 -5
1218 406 2 -0.35 46.341858110753805 90.80203920613936 7.267219681290529 0 0 -5
717 239 2 -0.35 59.27543729027813 87.50859160036106 5.8976547360701055 1 -1 -1
1385 462 2 -0.35 58.24678793381713 104.62555586145906 20.26549742036216 3 4 2
715 239 1 0.7 58.97738549426163 88.1674795833218 4.99066424394681 1 -1 -1
716 239 2 -0.35 58.67933369824513 88.82636756628257 4.083673751823514 1 -1 -1
549 183 2 -0.35 72.7889964485474 88.66063274894697 18.105310472125964 2 9 5
547 183 1 0.7 72.50283744620127 89.76225809899306 18.32921807250951 2 9 5
1359 453 2 -0.35 77.5707009674721 89.28709301374128 20.370712783432957 -5 1 2
1357 453 1 0.7 77.7467872976104 88.88138524315124 19.298334674173443 -5 1 2
548 183 2 -0.35 72.21667844385513 90.86388344903914 18.55312567289305 2 9 5
1358 453 2 -0.35 77.92287362774869 88.4756774725612 18.22595656491393 -5 1 2
885 295 2 -0.35 73.8028774897125 100.30114423827364 7.299940035238162 0 -4 2
883 295 1 0.7 73.30741486579502 100.64309538480329 6.308382572613135 0 -4 2
884 295 2 -0.35 72.81195224187755 100.98504653133293 5.316825109988108 0 -4 2
285 95 2 -0.35 78.290218951374 96.37373175967213 18.56148645556003 1 4 -4
284 95 2 -0.35 78.8176015190232 96.0331683082667 16.328039755298825 1 4 -4
283 95 1 0.7 78.5539102351986 96.20345003396942 17.444763105429427 1 4 -4
1436 479 2 -0.35 71.86373434290182 104.05708630089332 0.3919945277007581 3 -3 0
609 203 2 -0.35 100.36280185249768 87.9396107238419 18.989484929602078 3 -1 6
607 203 1 0.7 100.3464537171629 86.8217313134987 18.68016573782643 3 -1 6
608 203 2 -0.35 100.33010558182812 85.7038519031555 18.370846546050785 3 -1 6
119 40 2 -0.35 103.31495640022074 99.41135641544506 20.42467531417248 -1 -1 3
118 40 1 0.7 104.33492539579692 98.91857070725875 20.174824370868404 -1 -1 3
120 40 2 -0.35 105.3548943913731 98.42578499907245 19.924973427564325 -1 -1 3
1045 349 1 0.7 115.0212692633712 90.64028746377141 1.0296692281869135 0 2 8
1046 349 2 -0.35 115.95552059617017 91.05973377976842 1.5744987750743054 0 2 8
512 171 2 -0.35 111.55704045786679 93.90117691572927 20.471387022471337 7 6 -8
511 171 1 0.7 110.95890756038382 93.36495602132024 19.634545227776997 7 6 -8
513 171 2 -0.35 110.36077466290085 92.82873512691121 18.797703433082656 7 6 -8
1047 349 2 -0.35 114.0870179305722 90.22084114777441 0.4848396812995215 0 2 8
180 60 2 -0.35 13.397116863389604 120.77704483781847 6.793797849034094 2 -2 4
178 60 1 0.7 13.743974251004042 121.44321587542638 7.677826186424028 2 -2 4
179 60 2 -0.35 14.090831638618482 122.10938691303429 8.561854523813961 2 -2 4
369 123 2 -0.35 18.61055035705014 123.07231453248363 21.42358493586841 -7 -7 0
668 223 2 -0.35 26.740123746787447 123.16825636075976 18.74450439996337 1 -4 1
669 223 2 -0.35 28.83987468855493 123.06354927931915 17.763442521361817 1 -4 1
667 223 1 0.7 27.789999217671188 123.11590282003945 18.253973460662593 1 -4 1
1177 393 1 0.7 28.48147590786403 124.50457662082134 0.3376468552135929 -4 5 -2
1179 393 2 -0.35 27.483274211952875 124.43416191768397 0.9243624113918476 -4 5 -2
14 5 2 -0.35 32.25551129830198 123.83293455033503 15.51855383697739 3 -6 1
15 5 2 -0.35 33.94342054000544 122.99072018362331 16.86912310668511 3 -6 1
13 5 1 0.7 33.099465919153715 123.41182736697917 16.19383847183125 3 -6 1
689 230 2 -0.35 34.89855582662169 116.13523145257128 2.3374882748877948 -3 8 -3
688 230 1 0.7 33.801810807268474 115.87626478292486 2.6126003003195803 -3 8 -3
690 230 2 -0.35 32.70506578791527 115.61729811327844 2.887712325751366 -3 8 -3
1386 462 2 -0.35 56.88029087798381 106.092168579932 19.09753640628217 3 4 2
1384 462 1 0.7 57.56353940590047 105.35886222069553 19.681516913322167 3 4 2
335 112 2 -0.35 54.555210458297765 120.5598831141371 7.38525873978006 2 -1 -1
336 112 2 -0.35 52.62721716449173 121.6019375635882 6.624098846312992 2 -1 -1
334 112 1 0.7 53.59121381139475 121.08091033886265 7.004678793046526 2 -1 -1
1435 479 1 0.7 72.05323739336671 105.17443290519522 0.14455734431868308 3 -3 0
1437 479 2 -0.35 72.24274044383161 106.2917795094971 124.89712016093661 3 -3 -1
348 116 2 -0.35 78.55154044259582 111.19784021352594 10.01323963861033 -2 -6 3
347 116 2 -0.35 79.03765723406669 108.9938963308172 9.475911222352314 -2 -6 3
346 116 1 0.7 78.79459883833125 110.09586827217156 9.744575430481323 -2 -6 3
1473 491 2 -0.35 97.68541405321217 123.90162032389742 6.310810430717134 1 -5 2
352 118 1 0.7 98.74583288883008 104.75745124346277 20.40943851018079 -7 2 4
1472 491 2 -0.35 95.77185643736551 122.9744787457452 5.382852594981315 1 -5 2
1471 491 1 0.7 96.72863524528884 123.43804953482132 5.846831512849224 1 -5 2
578 193 2 -0.35 97.40946702939613 123.98648213715272 12.078376125936803 1 -2 1
577 193 1 0.7 97.22784192574952 124.01903190438817 13.223606598103935 1 -2 1
579 193 2 -0.35 97.0462168221029 124.05158167162361 14.368837070271066 1 -2 1
354 118 2 -0.35 98.91261789992475 104.24719058964807 19.38113076186624 -7 2 4
738 246 2 -0.35 105.77815626002933 124.78393504012915 3.7746689265329767 0 -3 6
1175 392 2 -0.35 121.81169722616265 113.30566655026074 4.9379224559584864 -2 -1 3
1174 392 1 0.7 122.3823525248282 113.93466805649823 4.147789786555287 -2 -1 3
1176 392 2 -0.35 122.95300782349376 114.56366956273571 3.3576571171520877 -2 -1 3
1183 395 1 0.7 50.52803805289823 8.583476296370279 38.83893448172409 6 2 1
1184 395 2 -0.35 49.76257901027361 9.450171637691586 38.93119302819552 6 2 1
1185 395 2 -0.35 51.29349709552286 7.71678095504897 38.74667593525265 6 2 1
992 331 2 -0.35 80.0130682762698 15.825553882026185 21.44658809288615 -5 6 7
991 331 1 0.7 79.45711602067189 14.93552310729514 21.940918255356966 -5 6 7
993 331 2 -0.35 78.90116376507396 14.045492332564095 22.435248417827783 -5 6 7
1455 485 2 -0.35 85.2317423062141 13.385392558751017 31.891167884865354 1 0 -2
1454 485 2 -0.35 87.02817079290666 13.135009864927401 30.444601882624795 1 0 -2
1453 485 1 0.7 86.12995654956038 13.26020121183921 31.167884883745074 1 0 -2
300 100 2 -0.35 98.29264675097306 12.691874570966501 28.136476316436333 0 -4 8
299 100 2 -0.35 100.03478753193072 12.800872315088105 29.664699137587636 0 -4 8
298 100 1 0.7 99.1637171414519 12.746373443027304 28.900587727011985 0 -4 8
711 237 2 -0.35 1.882724787265335 27.257836850848907 34.21205656098278 4 0 -2
709 237 1 0.7 1.9433066932945569 27.6429110951811 33.11951472699368 4 0 -2
710 237 2 -0.35 2.003888599323779 28.027985339513286 32.02697289300457 4 0 -2
954 318 2 -0.35 13.927034010539238 30.40456847188848 20.899674055647218 -3 0 2
1493 498 2 -0.35 8.059181474265259 32.393964255727475 21.009734242923404 1 -2 6
1492 498 1 0.7 8.981058697944427 31.811810673932413 21.405764029260887 1 -2 6
1494 498 2 -0.35 9.902935921623595 31.229657092137355 21.80179381559837 1 -2 6
687 229 2 -0.35 8.544747270622047 42.422578363552674 36.054131136722035 0 0 -3
685 229 1 0.7 7.911368270125881 41.4588766232098 35.92879160827073 0 0 -3
686 229 2 -0.35 7.277989269629715 40.49517488286693 35.80345207981942 0 0 -3
516 172 2 -0.35 17.05370739912058 41.52046866055336 24.512828790979828 10 -7 0
514 172 1 0.7 16.73120485622061 41.316618523025916 23.417366682436732 10 -7 0
1485 495 2 -0.35 40.13422381441268 32.470815536987175 21.102538931132017 -4 -10 -6
1411 471 1 0.7 36.025114440945046 41.085874716699024 22.180010785575682 -6 1 -6
1413 471 2 -0.35 35.02281039120189 40.80194565352263 22.69027628406751 -6 1 -6
1412 471 2 -0.35 37.027418490688206 41.36980377987541 21.669745287083853 -6 1 -6
297 99 2 -0.35 48.58311561808883 21.660900137637142 32.870673446004936 -2 -2 -5
295 99 1 0.7 48.983873011600544 22.27202039763065 31.969826322807542 -2 -2 -5
296 99 2 -0.35 49.384630405112254 22.88314065762416 31.06897919961014 -2 -2 -5
1262 421 2 -0.35 61.73165209566671 31.963490196144058 42.381586475221674 -2 7 4
218 73 2 -0.35 75.39210905554145 24.850195772258605 31.877475101359178 3 -5 4
217 73 1 0.7 74.81655751431347 23.869620395534074 32.10728448748274 3 -5 4
219 73 2 -0.35 74.24100597308548 22.88904501880954 32.3370938736063 3 -5 4
1488 496 2 -0.35 78.24600785583863 34.68374925090279 26.35433799768852 3 -5 2
1486 496 1 0.7 77.28928330493264 35.28104091954849 26.625485183293172 3 -5 2
1487 496 2 -0.35 76.33255875402665 35.87833258819418 26.896632368897823 3 -5 2
1394 465 2 -0.35 83.19386403865644 30.940039594436353 23.9863996980759 -4 0 -5
1395 465 2 -0.35 81.27620167498469 29.6483531499108 24.177494407524648 -4 0 -5
1393 465 1 0.7 82.23503285682057 30.294196372173577 24.081947052800274 -4 0 -5
933 311 2 -0.35 90.08379254344541 22.713126556221017 22.766891812388888 -3 -2 -5
222 74 2 -0.35 95.46818890059946 23.036738671183443 41.783471077237174 3 1 3
220 74 1 0.7 96.32628239306293 22.256349330872716 41.79984287372848 3 1 3
932 311 2 -0.35 89.23951688206354 22.44171100808832 20.623079272116687 -3 -2 -5
931 311 1 0.7 89.66165471275447 22.577418782154666 21.694985542252788 -3 -2 -5
1055 352 2 -0.35 19.97633287146541 53.385653253065364 22.91511424569227 -1 3 4
1054 352 1 0.7 19.0425144540509 52.80409914327368 23.28305171413443 -1 3 4
1056 352 2 -0.35 18.10869603663639 52.22254503348199 23.650989182576595 -1 3 4
515 172 2 -0.35 16.40870231332064 41.11276838549848 22.321904573893633 10 -7 0
707 236 2 -0.35 39.26972966608539 45.50224778712046 25.158242038811256 4 -2 4
706 236 1 0.7 39.761839894766474 46.18062997045982 25.960255215857405 4 -2 4
708 236 2 -0.35 40.25395012344756 46.85901215379918 26.762268392903554 4 -2 4
911 304 2 -0.35 46.09248762588854 43.82877280945647 30.521671607966276 0 10 1
912 304 2 -0.35 44.81541880542717 45.323995097772276 29.290491062175416 0 10 1
910 304 1 0.7 45.453953215657855 44.576383953614375 29.906081335070844 0 10 1
651 217 2 -0.35 44.07592857946082 55.703361572022544 41.15229193092049 -5 -4 -9
649 217 1 0.7 44.98853591793301 56.33526530463703 41.48910867408326 -5 -4 -9
650 217 2 -0.35 45.90114325640519 56.96716903725152 41.82592541724603 -5 -4 -9
838 280 1 0.7 48.01214507833736 58.842142227482924 38.23582951417229 -3 5 3
840 280 2 -0.35 47.62423971904738 57.75096397685767 38.30260868454625 -3 5 3
839 280 2 -0.35 48.400050437627335 59.93332047810818 38.169050343798325 -3 5 3
383 128 2 -0.35 77.3016338832036 43.70989620831261 33.659153309227584 -1 3 12
382 128 1 0.7 76.21015682356543 43.835866376249044 33.287119244826386 -1 3 12
384 128 2 -0.35 75.11867976392725 43.96183654418549 32.91508518042519 -1 3 12
921 307 2 -0.35 76.14133228188338 49.624134021614104 27.651976771086975 1 -5 -2
919 307 1 0.7 76.3288037453671 49.02060214380064 28.62470680703823 1 -5 -2
920 307 2 -0.35 76.51627520885081 48.41707026598717 29.597436842989485 1 -5 -2
1187 396 2 -0.35 83.73717409723768 58.3221102401255 38.346499499401 -1 0 2
1186 396 1 0.7 83.39949506743856 59.42197443323265 38.19860889945487 -1 0 2
18 6 2 -0.35 70.91473317729519 59.14147289996642 36.63071373317982 -2 0 5
16 6 1 0.7 71.05469088693552 59.19929632165668 35.48064056532584 -2 0 5
17 6 2 -0.35 71.19464859657585 59.25711974334694 34.33056739747187 -2 0 5
43 15 1 0.7 74.36338986452819 61.95954212694482 33.88913115059756 0 -2 2
45 15 2 -0.35 73.2443415298679 62.26147879127324 33.93566152162363 0 -2 2
44 15 2 -0.35 75.4824381991885 61.657605462616395 33.84260077957148 0 -2 2
90 30 2 -0.35 67.30959650168934 60.63789326050952 40.87015939350351 -2 -4 -1
88 30 1 0.7 66.45831002607275 59.87466914611353 40.67419948016649 -2 -4 -1
89 30 2 -0.35 65.60702355045616 59.111445031717544 40.47823956682947 -2 -4 -1
913 305 1 0.7 84.93113470768407 59.56525057916314 31.977928268595033 -6 4 -3
914 305 2 -0.35 84.77564757709126 58.76139587094141 32.7996589789186 -6 4 -3
1188 396 2 -0.35 83.06181603763945 60.5218386263398 38.05071829950874 -1 0 2
915 305 2 -0.35 85.08662183827687 60.36910528738487 31.15619755827146 -6 4 -3
558 186 2 -0.35 113.14797546212863 47.287345648092504 23.40363274782755 1 2 7
557 186 2 -0.35 115.26338181929822 48.03138090553137 22.808765132526077 1 2 7
556 186 1 0.7 114.20567864071343 47.65936327681194 23.106198940176814 1 2 7
849 283 2 -0.35 103.84152874851777 53.050253135572625 40.53562527965308 3 -2 4
847 283 1 0.7 104.88935321719079 53.02162479371289 40.03879100054962 3 -2 4
848 283 2 -0.35 105.9371776858638 52.99299645185315 39.54195672144617 3 -2 4
1480 494 1 0.7 105.56982729933196 60.31294347166382 32.601230281207954 0 -5 -7
1482 494 2 -0.35 105.28081440292571 59.5065990130426 33.383457971694696 0 -5 -7
1481 494 2 -0.35 105.85884019573821 61.11928793028503 31.819002590721215 0 -5 -7
1189 397 1 0.7 12.023794921874648 70.96430686541125 27.457593763452692 4 1 -2
1191 397 2 -0.35 11.639750648353507 70.079130854937 26.81371999751969 4 1 -2
1190 397 2 -0.35 12.40783919539579 71.84948287588549 28.10146752938569 4 1 -2
1067 356 2 -0.35 18.217736614222463 65.62524780972214 31.679467797295157 -1 -1 -4
1066 356 1 0.7 18.834263479673737 66.58416081026985 31.89389839576027 -1 -1 -4
1068 356 2 -0.35 19.45079034512501 67.54307381081757 32.10832899422539 -1 -1 -4
1475 492 2 -0.35 29.597051323223234 74.15101079333826 24.13818010986638 5 -1 -4
1013 338 2 -0.35 31.605610247620895 66.05976778402417 30.221374024510457 -4 -4 0
1012 338 1 0.7 31.07013647994543 66.06042371689412 31.250386859163548 -4 -4 0
1014 338 2 -0.35 30.53466271226996 66.06107964976405 32.279399693816636 -4 -4 0
1476 492 2 -0.35 28.222633189371784 72.44668389925918 23.37094831212629 5 -1 -4
1474 492 1 0.7 28.90984225629751 73.29884734629873 23.754564210996335 5 -1 -4
165 55 2 -0.35 25.82952144480098 80.05828912296487 39.95160722719438 4 5 0
164 55 2 -0.35 26.0803677415354 77.86775984167606 39.229764028687335 4 5 0
163 55 1 0.7 25.95494459316819 78.96302448232046 39.59068562794086 4 5 0
987 329 2 -0.35 36.38567656557542 77.46027969380987 41.59160597885939 2 -3 -13
1489 497 1 0.7 58.38072875349459 67.64681517069232 38.17957898476154 -3 -7 0
1490 497 2 -0.35 57.95722825468596 68.014881645495 37.16430838160342 -3 -7 0
1491 497 2 -0.35 58.804229252303216 67.27874869588966 39.19484958791966 -3 -7 0
169 57 1 0.7 82.07526722177568 78.20821813710376 40.87431421198758 0 4 0
1311 437 2 -0.35 67.17239805249474 77.36821248961354 37.41039514074981 -1 1 -1
1309 437 1 0.7 68.27363720168333 77.3676037852111 37.04587907008445 -1 1 -1
1310 437 2 -0.35 69.3748763508719 77.36699508080868 36.681362999419086 -1 1 -1
527 176 2 -0.35 64.56636643212265 70.55550014965313 27.71725134778767 4 -4 5
528 176 2 -0.35 66.86304627281432 70.57689288879435 27.3898310367651 4 -4 5
526 176 1 0.7 65.71470635246848 70.56619651922374 27.553541192276384 4 -4 5
536 179 2 -0.35 66.71377218753807 82.83490948964156 41.45423396664376 2 -1 0
1337 446 2 -0.35 82.27743681141807 73.0408857543337 38.71591979864481 4 -3 3
1338 446 2 -0.35 84.55556565330178 72.61049997613114 38.80134263928692 4 -3 3
1336 446 1 0.7 83.41650123235993 72.82569286523243 38.75863121896587 4 -3 3
171 57 2 -0.35 81.78090056128471 77.09485634985795 40.73512441390309 0 4 0
170 57 2 -0.35 82.36963388226663 79.32157992434956 41.013504010072076 0 4 0
115 39 1 0.7 96.9347232876395 81.42140919255407 21.236057588012233 -2 -1 0
117 39 2 -0.35 96.7160508770386 80.81999177699733 22.203569587476807 -2 -1 0
834 278 2 -0.35 119.351530311218 68.37102869680423 23.869849077505407 -4 -9 -2
832 278 1 0.7 119.09867764003019 67.96041172117528 24.92486529823189 -4 -9 -2
833 278 2 -0.35 118.84582496884236 67.54979474554632 25.979881518958372 -4 -9 -2
432 144 2 -0.35 110.38824422642385 82.28192067314343 34.69061632853959 4 -12 0
430 144 1 0.7 110.79630253984539 81.28075016169575 35.11102805512982 4 -12 0
431 144 2 -0.35 111.2043608532669 80.27957965024807 35.53143978172005 4 -12 0
672 224 2 -0.35 14.774689384936728 91.74044692205965 41.586515652827664 3 -1 5
670 224 1 0.7 15.744583936827437 91.82098198946576 42.217719788691056 3 -1 5
576 192 2 -0.35 14.638252918815652 89.99765210071777 38.43085404916567 -5 -2 -1
574 192 1 0.7 14.564721661724697 90.704721933436 37.51420504006225 -5 -2 -1
575 192 2 -0.35 14.49119040463374 91.41179176615422 36.59755603095884 -5 -2 -1
744 248 2 -0.35 12.49409389466303 98.93565794728212 32.971633713603396 -3 -4 1
742 248 1 0.7 12.835457962764002 99.188432705695 31.892200763152996 -3 -4 1
743 248 2 -0.35 13.176822030864974 99.4412074641079 30.812767812702592 -3 -4 1
1468 490 1 0.7 20.956154974473115 95.99036075646404 33.84427949884989 -5 -5 -2
1469 490 2 -0.35 20.146733480309845 96.33612519110267 33.088710970835514 -5 -5 -2
1470 490 2 -0.35 21.765576468636386 95.64459632182542 34.59984802686427 -5 -5 -2
226 76 1 0.7 35.11041303240523 96.11433506605259 35.9061554733128 -8 -4 -4
227 76 2 -0.35 35.218036590580596 97.26630039027425 35.98978000032037 -8 -4 -4
228 76 2 -0.35 35.002789474229864 94.96236974183094 35.822530946305235 -8 -4 -4
293 98 2 -0.35 44.01175088995639 87.38788229799134 32.48787954867848 7 -5 -1
292 98 1 0.7 43.76562164277712 86.29278599380999 32.19498967474579 7 -5 -1
294 98 2 -0.35 43.519492395597844 85.19768968962862 31.902099800813108 7 -5 -1
156 52 2 -0.35 50.31134545879641 88.63486847430227 20.907479230638536 -2 4 4
155 52 2 -0.35 50.766311279553825 89.50957903232045 23.007547691818075 -2 4 4
154 52 1 0.7 50.53882836917512 89.07222375331135 21.957513461228306 -2 4 4
535 179 1 0.7 67.2808728823657 83.84634534396473 41.48576671966071 2 -1 0
537 179 2 -0.35 67.84797357719333 84.85778119828788 41.517299472677664 2 -1 0
185 62 2 -0.35 76.9292523557531 94.69664173802049 32.10564219596518 3 -2 -1