LAMMPS (29 Aug 2024 - Update 1)
  using 1 OpenMP thread(s) per MPI task
package gpu 1 gpuID 0
# GCMC for CO2 molecular fluid, rigid/small/nvt dynamics
# Rigid CO2 TraPPE model
# [Potoff and J.I. Siepmann, Vapor-liquid equilibria of
# mixtures containing alkanes, carbon dioxide and
# nitrogen AIChE J., 47,1676-1682 (2001)].

# global model settings

units           real
atom_style      full
boundary        p p p
pair_style      lj/cut/coul/long  12
pair_modify     mix arithmetic shift yes
kspace_style    pppm 1.0e-4
bond_style      harmonic
angle_style     harmonic
neigh_modify    one 4000

# box, start molecules on simple cubic lattice
region          mbox block 0 ${lbox} 0 ${lbox} 0 ${lbox} units box
region          mbox block 0 125 0 ${lbox} 0 ${lbox} units box
region          mbox block 0 125 0 125 0 ${lbox} units box
region          mbox block 0 125 0 125 0 125 units box
create_box      2 mbox                                       bond/types 1                                angle/types 1                               extra/bond/per/atom 2                       extra/angle/per/atom 1                      extra/special/per/atom 2
Created orthogonal box = (0 0 0) to (125 125 125)
  1 by 1 by 1 MPI processor grid
molecule        co2mol ../CO2.txt
Read molecule template co2mol:
# CO2 molecule file. TraPPE model.
  1 molecules
  0 fragments
  3 atoms with max type 2
  2 bonds with max type 1
  1 angles with max type 1
  0 dihedrals with max type 0
  0 impropers with max type 0
create_atoms   	0 random ${nmols} 34578 mbox mol co2mol 464563 overlap 1.2
create_atoms   	0 random 500 34578 mbox mol co2mol 464563 overlap 1.2
Created 1500 atoms
  using lattice units in orthogonal box = (0 0 0) to (125 125 125)
  create_atoms CPU = 0.013 seconds

# rigid CO2 TraPPE model

pair_coeff      1   1  0.053649   2.800
pair_coeff      2   2  0.156973   3.050
bond_coeff      1       0       1.16
angle_coeff     1       0       180

# masses

mass 1 12.0107
mass 2 15.9994

write_data init_conf.data  pair ij
System init for write_data ...
PPPM initialization ...
  using 12-bit tables for long-range coulomb (src/kspace.cpp:342)
  G vector (1/distance) = 0.16711723
  grid = 27 27 27
  stencil order = 5
  estimated absolute RMS force accuracy = 0.032994381
  estimated relative force accuracy = 9.9361597e-05
  using double precision FFTW3
  3d grid and FFT values/proc = 32768 19683
Generated 1 of 1 mixed pair_coeff terms from arithmetic mixing rule

# MD settings

group           co2 type 1 2
1500 atoms in group co2
velocity       	all create 300 54654
timestep        0.25

# rigid constraints with thermostat
fix             myrigidnvt co2 rigid/nvt molecule temp 300 300 $(100*dt)
fix             myrigidnvt co2 rigid/nvt molecule temp 300 300 25
  500 rigid bodies with 1500 atoms

thermo 1000
thermo_style custom step temp density press ke pe etotal


variable    mvol equal vol
variable    mden equal density
variable	mtmp equal temp
variable    mpre equal press

fix mydat all ave/time 1 4000 4000 v_mtmp v_mden v_mpre file statistics.dat ## every 1ps

run 4000000 ## 1ns

CITE-CITE-CITE-CITE-CITE-CITE-CITE-CITE-CITE-CITE-CITE-CITE-CITE

Your simulation uses code contributions which should be cited:

- GPU package (short-range, long-range and three-body potentials): doi:10.1016/j.cpc.2010.12.021, doi:10.1016/j.cpc.2011.10.012, doi:10.1016/j.cpc.2013.08.002, doi:10.1016/j.commatsci.2014.10.068, doi:10.1016/j.cpc.2016.10.020, doi:10.3233/APC200086

@Article{Brown11,
 author = {W. M. Brown and P. Wang and S. J. Plimpton and A. N. Tharrington},
 title = {Implementing Molecular Dynamics on Hybrid High Performance Computers---Short Range Forces},
 journal = {Comput.\ Phys.\ Commun.},
 year =    2011,
 volume =  182,
 pages =   {898--911},
 doi =     {10.1016/j.cpc.2010.12.021}
}

@Article{Brown12,
 author = {W. M. Brown and A. Kohlmeyer and S. J. Plimpton and A. N. Tharrington},
 title = {Implementing Molecular Dynamics on Hybrid High Performance Computers - Particle-Particle Particle-Mesh},
 journal = {Comput.\ Phys.\ Commun.},
 year =    2012,
 volume =  183,
 doi =     {10.1016/j.cpc.2011.10.012},
 pages =   {449--459}
}

@Article{Brown13,
 author = {W. M. Brown and Y. Masako},
 title = {Implementing Molecular Dynamics on Hybrid High Performance Computers---Three-Body Potentials},
 journal = {Comput.\ Phys.\ Commun.},
 year =    2013,
 volume =  184,
 pages =   {2785--2793},
 doi =     {10.1016/j.cpc.2013.08.002},
}

@Article{Trung15,
 author = {T. D. Nguyen and S. J. Plimpton},
 title = {Accelerating Dissipative Particle Dynamics Simulations for Soft Matter Systems},
 journal = {Comput.\ Mater.\ Sci.},
 year =    2015,
 doi =     {10.1016/j.commatsci.2014.10.068},
 volume =  100,
 pages =   {173--180}
}

@Article{Trung17,
 author = {T. D. Nguyen},
 title = {{GPU}-Accelerated {T}ersoff Potentials for Massively Parallel
    Molecular Dynamics Simulations},
 journal = {Comput.\ Phys.\ Commun.},
 year =    2017,
 doi =     {10.1016/j.cpc.2016.10.020},
 volume =  212,
 pages =   {113--122}
}

@inproceedings{Nikolskiy19,
 author = {V. Nikolskiy and V. Stegailov},
 title = {{GPU} Acceleration of Four-Site Water Models in {LAMMPS}},
 booktitle = {Proceedings of the International Conference on Parallel
    Computing (ParCo 2019), Prague, Czech Republic},
 doi =     {10.3233/APC200086},
 year =    2019
}

CITE-CITE-CITE-CITE-CITE-CITE-CITE-CITE-CITE-CITE-CITE-CITE-CITE

PPPM initialization ...
  using 12-bit tables for long-range coulomb (src/kspace.cpp:342)
  G vector (1/distance) = 0.16711723
  grid = 27 27 27
  stencil order = 5
  estimated absolute RMS force accuracy = 0.032994381
  estimated relative force accuracy = 9.9361597e-05
  using double precision FFTW3
  3d grid and FFT values/proc = 32768 19683
Generated 1 of 1 mixed pair_coeff terms from arithmetic mixing rule
Per MPI rank memory allocation (min/avg/max) = 10.39 | 10.39 | 10.39 Mbytes
   Step          Temp         Density         Press          KinEng         PotEng         TotEng    
         0   306.19616      0.018708349   -28.885572      759.68112      23236.992      23996.673    
      1000   297.12854      0.018708349    12.352902      737.18409     -21.540296      715.64379    
      2000   301.122        0.018708349    9.3486803      747.09199     -29.78904       717.30295    
      3000   295.37434      0.018708349    5.7152951      732.83189     -41.294787      691.5371     
      4000   293.67396      0.018708349    7.4492166      728.61318     -45.209439      683.40374    
      5000   306.97202      0.018708349    11.290697      761.60605     -47.695131      713.91092    
      6000   300.54364      0.018708349    19.468129      745.65706     -55.89701       689.76005    
      7000   298.0661       0.018708349    8.9365801      739.5102      -62.4793        677.0309     
      8000   304.23208      0.018708349    8.3230947      754.80817     -64.663612      690.14456    
      9000   293.50596      0.018708349    25.44288       728.19639     -66.532335      661.66405    
     10000   307.53066      0.018708349    17.977912      762.99205     -64.237206      698.75484    
     11000   297.01241      0.018708349    13.945396      736.89598     -64.355038      672.54094    
     12000   306.41091      0.018708349    10.519908      760.21392     -71.625826      688.5881     
     13000   300.86748      0.018708349    11.278193      746.46052     -71.498749      674.96177    
     14000   303.55212      0.018708349   -0.048269351    753.12117     -72.776386      680.34479    
     15000   315.78472      0.018708349    12.98993       783.47059     -68.497326      714.97326    
     16000   304.67124      0.018708349    17.311009      755.89775     -77.765518      678.13223    
     17000   290.3648       0.018708349    18.935129      720.40307     -80.289799      640.11327    
     18000   288.86987      0.018708349    5.9634565      716.6941      -80.009101      636.685      
     19000   306.73778      0.018708349    9.0285326      761.02489     -72.680609      688.34428    
     20000   313.11393      0.018708349    10.042256      776.84429     -82.037607      694.80668    
     21000   300.83187      0.018708349    8.6515858      746.37217     -89.427021      656.94515    
     22000   302.34415      0.018708349    16.067903      750.12417     -91.632319      658.49185    
     23000   302.62815      0.018708349    9.5636113      750.82877     -88.685682      662.14309    
     24000   287.68033      0.018708349    8.5786142      713.74283     -96.112791      617.63004    
     25000   294.80569      0.018708349    11.487727      731.42105     -100.31973      631.10132    
     26000   311.7848       0.018708349    11.772558      773.54669     -103.67665      669.87004    
     27000   306.37375      0.018708349    11.430629      760.12172     -102.62391      657.49782    
     28000   309.55095      0.018708349    7.9632338      768.00445     -100.63017      667.37428    
     29000   311.66777      0.018708349    2.3965703      773.25633     -99.421493      673.83484    
     30000   295.25516      0.018708349    13.804745      732.5362      -103.81561      628.72059    
     31000   301.65099      0.018708349    18.646988      748.40442     -101.02792      647.3765     
     32000   311.40937      0.018708349    8.0619443      772.61524     -102.93901      669.67623    
     33000   306.44195      0.018708349    9.9807488      760.29091     -111.95359      648.33732    
     34000   289.13213      0.018708349    9.2154124      717.34477     -112.484        604.86077    
     35000   304.04514      0.018708349    9.0733602      754.34438     -109.75342      644.59096    
     36000   295.88981      0.018708349    3.6950695      734.11078     -113.42256      620.68822    
     37000   295.59724      0.018708349    9.6947738      733.38489     -111.61846      621.76643    
     38000   291.05261      0.018708349    9.0727516      722.10956     -117.30418      604.80538    
     39000   294.03068      0.018708349    10.808832      729.49821     -114.03163      615.46659    
     40000   307.74835      0.018708349    6.9842275      763.53213     -114.22517      649.30696    
     41000   279.5959       0.018708349   -2.5458165      693.68513     -120.6793       573.00582    
     42000   300.84796      0.018708349    7.6038715      746.41208     -126.75921      619.65288    
     43000   308.53821      0.018708349    9.9368066      765.49181     -117.11088      648.38093    
     44000   300.86082      0.018708349    15.366593      746.44398     -113.46249      632.98149    
     45000   298.35153      0.018708349    8.9027831      740.21838     -119.34495      620.87343    
     46000   286.54237      0.018708349    8.6732553      710.91952     -119.69188      591.22764    
     47000   306.34785      0.018708349    5.159572       760.05747     -121.47015      638.58732    
     48000   302.81694      0.018708349    19.131259      751.29716     -120.85935      630.43782    
     49000   296.62823      0.018708349    8.7621696      735.94281     -123.99667      611.94614    
     50000   307.12113      0.018708349    8.9423649      761.976       -119.17391      642.80209    
     51000   299.65719      0.018708349    9.4760648      743.45776     -122.63936      620.8184     
     52000   300.66633      0.018708349    10.03361       745.96146     -132.4279       613.53356    
     53000   301.08257      0.018708349    10.18778       746.99415     -136.5262       610.46795    
     54000   296.81787      0.018708349    5.9838903      736.41332     -131.72005      604.69327    
     55000   281.6915       0.018708349    3.882953       698.88437     -129.89596      568.98842    
     56000   293.91316      0.018708349    14.176889      729.20666     -133.04837      596.1583     
     57000   301.94394      0.018708349    10.252798      749.13125     -127.50809      621.62315    
     58000   304.46714      0.018708349    6.2960506      755.39138     -130.68761      624.70376    
     59000   307.89347      0.018708349    13.083508      763.89218     -127.96697      635.92521    
     60000   298.57984      0.018708349    6.8751541      740.78481     -128.08641      612.6984     
     61000   311.88246      0.018708349    6.8611305      773.78898     -128.41085      645.37813    
     62000   293.06072      0.018708349    9.8420392      727.09173     -127.46491      599.62682    
     63000   293.31614      0.018708349    9.8970311      727.72542     -130.2746       597.45082    
     64000   297.42828      0.018708349    12.040952      737.92775     -129.77841      608.14934    
     65000   315.6886       0.018708349    12.662646      783.23212     -131.15533      652.0768     
     66000   298.66936      0.018708349    8.0285758      741.00691     -138.86817      602.13874    
     67000   295.29566      0.018708349    11.71173       732.63667     -137.732        594.90466    
     68000   299.91701      0.018708349    18.210228      744.10236     -134.46149      609.64087    
     69000   304.00234      0.018708349    8.4751274      754.23819     -134.97597      619.26222    
     70000   310.15932      0.018708349    2.6433767      769.51381     -133.12929      636.38452    
     71000   297.00844      0.018708349    10.54118       736.88614     -126.08442      610.80171    
     72000   304.55686      0.018708349    14.526954      755.61396     -125.09043      630.52353    
     73000   309.08711      0.018708349    9.1697652      766.85364     -127.61347      639.24016    
     74000   287.89993      0.018708349    8.4057072      714.28765     -135.34117      578.94648    
     75000   308.66228      0.018708349    7.3683176      765.79963     -131.23082      634.56881    
     76000   299.44202      0.018708349    14.97873       742.9239      -131.29911      611.62478    
     77000   293.0686       0.018708349    14.623363      727.11128     -137.59958      589.5117     
     78000   295.24653      0.018708349   -0.54476291     732.51478     -135.27253      597.24226    
     79000   306.95245      0.018708349    6.8712075      761.55749     -133.43654      628.12095    
     80000   295.66782      0.018708349    20.272457      733.56002     -132.27912      601.28089    
     81000   284.60426      0.018708349    5.9108687      706.11101     -120.75293      585.35808    
     82000   303.89068      0.018708349   -2.0182489      753.96115     -139.2109       614.75025    
     83000   304.17074      0.018708349    7.6891154      754.656       -131.11209      623.54391    
     84000   300.06138      0.018708349    10.05212       744.46055     -128.04839      616.41216    
     85000   300.23119      0.018708349    9.1594496      744.88185     -129.85606      615.0258     
     86000   287.56608      0.018708349    8.4697591      713.45937     -137.1867       576.27268    
     87000   306.40954      0.018708349    8.3335248      760.21051     -143.49037      616.72014    
     88000   311.03935      0.018708349    9.2645179      771.6972      -140.87099      630.82621    
     89000   292.06142      0.018708349    12.664221      724.61243     -147.93971      576.67272    
     90000   300.38646      0.018708349    0.63432882     745.26708     -151.64314      593.62395    
     91000   304.52252      0.018708349    18.157         755.52876     -147.52319      608.00557    
     92000   300.21953      0.018708349    7.2533761      744.85294     -143.41695      601.436      
     93000   289.27064      0.018708349    5.2421608      717.68842     -145.01709      572.67134    
     94000   308.65953      0.018708349    18.727232      765.7928      -145.2929       620.4999     
     95000   297.60149      0.018708349    11.6306        738.35749     -143.15005      595.20744    
     96000   303.9879       0.018708349   -0.82045833     754.20235     -144.84106      609.36129    
     97000   301.20014      0.018708349    13.343418      747.28586     -148.63399      598.65187    
     98000   293.87183      0.018708349    7.3659637      729.1041      -148.87033      580.23378    
     99000   305.71211      0.018708349    7.5279177      758.48016     -144.67674      613.80343    
    100000   309.88986      0.018708349    11.953124      768.84529     -147.4807       621.36458    
    101000   294.52728      0.018708349    10.421435      730.7303      -147.14401      583.5863     
    102000   301.37625      0.018708349    6.9849248      747.72277     -143.17466      604.54811    
    103000   289.65005      0.018708349    7.6476879      718.62975     -144.50066      574.12909    
    104000   305.98626      0.018708349    10.249474      759.16036     -145.81568      613.34468    
    105000   291.7915       0.018708349    11.234178      723.94275     -137.82125      586.12151    
    106000   307.51631      0.018708349    4.0557204      762.95645     -142.48883      620.46762    
    107000   297.96754      0.018708349    9.7443095      739.26567     -144.3081       594.95757    
    108000   304.75515      0.018708349    28.649258      756.10592     -151.02333      605.08259    
    109000   300.8981       0.018708349    9.5127011      746.53649     -143.24533      603.29116    
    110000   291.0448       0.018708349    7.5141885      722.09018     -140.667        581.42318    
    111000   304.4813       0.018708349    6.9537036      755.4265      -133.88418      621.54233    
    112000   314.68649      0.018708349    14.358355      780.74585     -146.75098      633.99486    
    113000   300.74349      0.018708349    9.2857831      746.15289     -144.88602      601.26687    
    114000   294.96241      0.018708349    2.9324706      731.80987     -140.03488      591.77499    
    115000   303.20415      0.018708349    1.6010208      752.25786     -140.10359      612.15427    
    116000   314.21974      0.018708349    13.997013      779.58784     -145.17202      634.41582    
    117000   285.91974      0.018708349    9.4710666      709.37476     -148.36601      561.00875    
    118000   301.3366       0.018708349    5.7825069      747.62441     -142.41781      605.20661    
    119000   310.48795      0.018708349    16.488854      770.32916     -148.68735      621.64181    
    120000   284.17246      0.018708349    11.870786      705.03971     -139.80724      565.23247    
    121000   285.82052      0.018708349    5.2589313      709.12859     -139.99612      569.13247    
    122000   298.68396      0.018708349    8.7058782      741.04313     -132.17163      608.8715     
    123000   314.23542      0.018708349    15.555074      779.62675     -129.97742      649.64933    
    124000   303.10467      0.018708349    12.793447      752.01104     -130.51258      621.49846    
    125000   288.22301      0.018708349    7.2456142      715.08923     -132.46846      582.62077    
    126000   298.30424      0.018708349    7.209147       740.10103     -134.21713      605.8839     
    127000   302.94046      0.018708349    11.86139       751.60363     -131.86254      619.7411     
    128000   306.85229      0.018708349    8.4300767      761.30899     -127.8656       633.44338    
    129000   294.78831      0.018708349    8.1879799      731.37793     -134.19974      597.17819    
    130000   297.18462      0.018708349    10.057945      737.32323     -139.59991      597.72331    
    131000   316.91905      0.018708349    1.8411035      786.2849      -132.4578       653.82709    
    132000   291.94856      0.018708349    8.1703901      724.33243     -135.6506       588.68183    
    133000   295.75956      0.018708349    8.7707197      733.78763     -139.41964      594.36799    
    134000   313.12893      0.018708349    18.886931      776.88151     -144.09577      632.78574    
    135000   314.6578       0.018708349    7.3794009      780.67468     -139.40165      641.27304    
    136000   287.17155      0.018708349    5.6764559      712.48054     -133.7151       578.76544    
    137000   301.84959      0.018708349    11.663409      748.89715     -132.08731      616.80984    
    138000   313.79935      0.018708349    10.642306      778.54483     -130.33977      648.20505    
    139000   293.35196      0.018708349    17.036531      727.8143      -128.66567      599.14864    
    140000   299.14937      0.018708349    11.903593      742.19783     -127.9678       614.23003    
    141000   303.30357      0.018708349    8.2560955      752.50452     -126.67279      625.83173    
    142000   313.80692      0.018708349    0.51747748     778.56362     -128.30043      650.26319    
    143000   305.01062      0.018708349   -1.009816       756.73976     -132.82967      623.91009    
    144000   292.73023      0.018708349    13.957158      726.27177     -133.4001       592.87167    
    145000   296.15138      0.018708349   -0.58284187     734.75974     -129.50128      605.25845    
    146000   325.27124      0.018708349   -11.003337      807.00691     -128.51846      678.48845    
    147000   302.63498      0.018708349    17.257649      750.84572     -130.43044      620.41528    
    148000   290.72824      0.018708349    20.538164      721.30477     -126.66885      594.63592    
    149000   289.67421      0.018708349    12.79952       718.6897      -125.29257      593.39713    
    150000   310.50012      0.018708349   -0.15534197     770.35936     -129.1666       641.19276    
    151000   309.87377      0.018708349    14.313099      768.80536     -133.12031      635.68505    
    152000   293.05065      0.018708349    12.874262      727.06675     -131.06992      595.99683    
    153000   297.89574      0.018708349   -12.567488      739.08753     -128.19727      610.89026    
    154000   304.4913       0.018708349    9.4547946      755.45131     -126.52447      628.92684    
    155000   298.97558      0.018708349    4.1669682      741.76666     -129.55784      612.20882    
    156000   310.73475      0.018708349    16.140745      770.94149     -123.05261      647.88887    
    157000   299.81962      0.018708349    27.297585      743.86074     -120.89791      622.96282    
    158000   290.40502      0.018708349    8.1539891      720.50285     -114.60398      605.89887    
    159000   298.06193      0.018708349    3.411121       739.49987     -113.42314      626.07673    
    160000   305.12755      0.018708349    17.030319      757.02986     -112.78065      644.24921    
    161000   304.738        0.018708349    10.410226      756.06338     -111.62579      644.43759    
    162000   298.66621      0.018708349    8.5259163      740.9991      -109.44375      631.55535    
    163000   304.99445      0.018708349    6.9723287      756.69964     -107.71198      648.98766    
    164000   306.39183      0.018708349    11.328992      760.16657     -112.88171      647.28486    
    165000   284.25495      0.018708349    12.676785      705.24436     -94.850829      610.39353    
    166000   309.13084      0.018708349    6.5019101      766.96213     -102.84165      664.12048    
    167000   306.33578      0.018708349    10.076351      760.02753     -104.87611      655.15142    
    168000   284.7451       0.018708349    7.9816913      706.46044     -103.70945      602.751      
    169000   289.58355      0.018708349    7.8519135      718.46477     -99.490141      618.97462    
    170000   313.23422      0.018708349    9.1061173      777.14275     -106.73313      670.40962    
    171000   301.98036      0.018708349    11.394403      749.22159     -109.42773      639.79387    
    172000   302.92914      0.018708349    15.820385      751.57555     -104.72633      646.84922    
    173000   307.77133      0.018708349    12.950435      763.58915     -105.47923      658.10992    
    174000   299.05499      0.018708349    9.1405203      741.96368     -99.339536      642.62414    
    175000   307.74302      0.018708349    10.029043      763.51893     -102.10054      661.41839    
    176000   291.96661      0.018708349    12.927072      724.3772      -100.90014      623.47706    
    177000   298.22137      0.018708349    8.1976592      739.89545     -103.25078      636.64467    
    178000   303.98936      0.018708349    7.0464479      754.20598     -99.022557      655.18342    
    179000   297.75473      0.018708349    9.4511985      738.73769     -99.841142      638.89655    
    180000   284.38777      0.018708349    10.49896       705.5739      -99.468772      606.10512    
    181000   301.4282       0.018708349    6.9991294      747.85168     -95.627099      652.22458    
    182000   306.1851       0.018708349    9.5300706      759.65366     -87.064908      672.58876    
    183000   305.31143      0.018708349    9.8871102      757.48609     -92.350995      665.13509    
    184000   297.03142      0.018708349    9.3014247      736.94313     -92.231905      644.71123    
    185000   298.21996      0.018708349    9.9602501      739.89195     -91.138357      648.75359    
    186000   303.39358      0.018708349    12.233717      752.72784     -91.502406      661.22544    
    187000   298.1227       0.018708349    9.1516645      739.65063     -91.14351       648.50712    
    188000   308.50479      0.018708349    7.666773       765.40888     -90.536759      674.87212    
    189000   295.12705      0.018708349    12.429021      732.21836     -96.626657      635.5917     
    190000   304.09835      0.018708349    16.411489      754.47638     -100.55072      653.92566    
    191000   305.31399      0.018708349    7.6565296      757.49241     -95.49396       661.99845    
    192000   304.5425       0.018708349    3.6539579      755.57833     -94.704256      660.87408    
    193000   292.79724      0.018708349    8.2484048      726.43801     -90.156826      636.28119    
    194000   302.23604      0.018708349    15.156205      749.85594     -90.489437      659.3665     
    195000   319.03787      0.018708349    9.9253198      791.54175     -89.693167      701.84858    
    196000   306.08858      0.018708349    7.0050576      759.41421     -89.882764      669.53144    
    197000   293.51178      0.018708349    3.8918146      728.21082     -92.463276      635.74755    
    198000   297.77864      0.018708349    13.035716      738.797       -84.484917      654.31209    
    199000   317.76844      0.018708349    18.593015      788.39227     -82.496343      705.89593    
    200000   306.05102      0.018708349    3.0147992      759.32101     -89.814241      669.50677    
    201000   293.36366      0.018708349    12.129172      727.84334     -87.60045       640.24289    
    202000   305.66229      0.018708349    19.677056      758.35657     -88.96982       669.38675    
    203000   299.31135      0.018708349    0.70695749     742.59972     -82.225305      660.37442    
    204000   299.49292      0.018708349    23.023517      743.0502      -80.730359      662.31984    
    205000   305.93931      0.018708349    37.72722       759.04385     -77.324387      681.71946    
    206000   303.05357      0.018708349    3.5759748      751.88427     -74.543283      677.34099    
    207000   292.80069      0.018708349    10.433175      726.44659     -78.847726      647.59886    
    208000   301.28842      0.018708349    16.359071      747.50487     -72.739049      674.76582    
    209000   297.42632      0.018708349   -7.4833923      737.9229      -79.515542      658.40736    
    210000   294.81011      0.018708349    12.511463      731.43202     -78.894226      652.53779    
    211000   290.69883      0.018708349    3.6599999      721.23182     -77.875246      643.35657    
    212000   285.53444      0.018708349    13.061593      708.41883     -75.432672      632.98615    
    213000   314.31747      0.018708349    19.40639       779.8303      -75.607868      704.22243    
    214000   302.21214      0.018708349   -4.5933445      749.79666     -81.398512      668.39815    
    215000   292.39807      0.018708349    12.832943      725.44767     -86.456669      638.991      
    216000   314.60731      0.018708349    8.2778701      780.54941     -80.561828      699.98758    
    217000   306.53817      0.018708349   -0.62259016     760.52965     -81.360856      679.16879    
    218000   299.53034      0.018708349    6.7328069      743.14302     -76.309332      666.83369    
    219000   294.84408      0.018708349    13.32363       731.51629     -74.177168      657.33912    
    220000   297.72882      0.018708349    9.9452013      738.67341     -79.130641      659.54277    
    221000   303.61549      0.018708349    5.6989226      753.27839     -76.933065      676.34533    
    222000   298.95518      0.018708349   -0.31561599     741.71604     -76.210113      665.50593    
    223000   302.44046      0.018708349    14.631439      750.36313     -82.379719      667.98341    
    224000   299.51354      0.018708349    9.511678       743.10135     -80.794624      662.30673    
    225000   306.08222      0.018708349    4.8134685      759.39842     -73.681876      685.71654    
    226000   301.69358      0.018708349    6.2927193      748.51008     -74.193506      674.31658    
    227000   304.98493      0.018708349    18.211941      756.67602     -73.980443      682.69557    
    228000   300.10554      0.018708349    10.145085      744.57011     -75.259124      669.31098    
    229000   294.7379       0.018708349    8.5419667      731.25286     -69.092134      662.16072    
    230000   296.03001      0.018708349    1.2262269      734.45863     -76.375195      658.08343    
    231000   293.52306      0.018708349    17.245739      728.23879     -72.562976      655.67582    
    232000   307.73538      0.018708349    11.728785      763.49997     -87.903304      675.59666    
    233000   310.44019      0.018708349    2.3923998      770.21066     -82.804281      687.40638    
    234000   300.47197      0.018708349    5.3225836      745.47925     -89.019411      656.45984    
    235000   292.0794       0.018708349    9.3840129      724.65703     -84.952393      639.70464    
    236000   300.79683      0.018708349    12.343128      746.28522     -75.767674      670.51754    
    237000   303.20582      0.018708349    4.3379914      752.26199     -78.502831      673.75916    
    238000   309.30112      0.018708349    6.7350908      767.38461     -75.455305      691.9293     
    239000   298.58786      0.018708349    8.4375662      740.80471     -80.164926      660.63979    
    240000   299.09271      0.018708349    9.0399363      742.05725     -80.85068       661.20657    
    241000   306.71907      0.018708349    10.567791      760.97848     -79.071724      681.90676    
    242000   305.01168      0.018708349    5.9319334      756.74239     -74.113004      682.62938    
    243000   299.85714      0.018708349    8.2569161      743.95383     -73.491681      670.46215    
    244000   296.90563      0.018708349    11.810754      736.63105     -69.63268       666.99837    
    245000   289.67678      0.018708349    17.685772      718.69607     -68.759517      649.93656    
    246000   306.28772      0.018708349    9.891998       759.90826     -67.300736      692.60753    
    247000   300.09739      0.018708349    7.7576896      744.5499      -73.143883      671.40602    
    248000   289.98945      0.018708349    8.6475865      719.47181     -72.20368       647.26813    
    249000   291.48819      0.018708349    9.7035046      723.19023     -75.471736      647.7185     
    250000   309.72438      0.018708349    10.548473      768.43473     -77.320408      691.11432    
    251000   295.73113      0.018708349    8.0831371      733.71708     -74.034504      659.68258    
    252000   287.26188      0.018708349    9.0723411      712.70464     -76.866667      635.83797    
    253000   298.23923      0.018708349    8.8910736      739.93975     -78.164312      661.77543    
    254000   300.34072      0.018708349    5.5299119      745.1536      -78.592086      666.56151    
    255000   289.90234      0.018708349    13.910824      719.2557      -75.223052      644.03265    
    256000   291.79025      0.018708349    11.959078      723.93965     -78.534251      645.4054     
    257000   303.37392      0.018708349    8.9443006      752.67907     -80.262811      672.41626    
    258000   299.17516      0.018708349    10.762409      742.26183     -75.045667      667.21616    
    259000   303.04232      0.018708349    9.4990072      751.85635     -76.240438      675.61591    
    260000   291.99539      0.018708349    7.6466283      724.44862     -79.112749      645.33587    
    261000   299.46319      0.018708349    10.020641      742.97643     -78.641793      664.33464    
    262000   290.9726       0.018708349    8.7769829      721.91103     -80.971742      640.93929    
    263000   299.41673      0.018708349    11.582635      742.86115     -80.490212      662.37094    
    264000   310.38987      0.018708349    10.374948      770.08582     -71.57314       698.51268    
    265000   304.14563      0.018708349    9.0713518      754.59368     -69.447312      685.14637    
    266000   285.82215      0.018708349    8.3020778      709.13263     -71.00973       638.1229     
    267000   304.40482      0.018708349    9.9140464      755.23676     -68.618698      686.61806    
    268000   304.97693      0.018708349    13.745691      756.65616     -66.20765       690.44851    
    269000   295.33362      0.018708349    9.8380714      732.73086     -68.058353      664.6725     
    270000   299.14493      0.018708349    7.5009993      742.18681     -74.949504      667.2373     
    271000   296.07626      0.018708349    10.806754      734.57335     -72.623113      661.95024    
    272000   288.56606      0.018708349    8.2661457      715.94034     -69.161405      646.77893    
    273000   301.4626       0.018708349    8.1701292      747.93702     -67.158222      680.7788     
    274000   306.94788      0.018708349    6.3581966      761.54614     -65.352158      696.19398    
    275000   305.89494      0.018708349    10.020167      758.93379     -63.900317      695.03347    
    276000   302.14497      0.018708349    9.2434207      749.63        -64.28869       685.34131    
    277000   313.30712      0.018708349    10.167291      777.32361     -66.380595      710.94302    
    278000   311.17753      0.018708349    10.835831      772.04003     -69.643791      702.39623    
    279000   301.13796      0.018708349    12.135759      747.13159     -66.027029      681.10456    
    280000   269.97656      0.018708349    8.4944803      669.81929     -63.268331      606.55096    
    281000   296.33146      0.018708349    6.6813309      735.20652     -62.869247      672.33728    
    282000   311.71677      0.018708349    5.1627563      773.37789     -66.409012      706.96888    
    283000   297.07581      0.018708349    10.468728      737.05328     -62.34197       674.71131    
    284000   301.07611      0.018708349    9.9916251      746.97812     -63.107623      683.8705     
    285000   298.96232      0.018708349    11.17181       741.73375     -60.12949       681.60426    
    286000   280.50728      0.018708349    8.7399148      695.94631     -56.872508      639.0738     
    287000   283.74225      0.018708349    10.854216      703.97235     -55.445467      648.52688    
    288000   295.49356      0.018708349    1.7871777      733.12766     -66.580921      666.54674    
    289000   307.49513      0.018708349    6.687444       762.9039      -67.150686      695.75321    
    290000   294.95691      0.018708349    13.518364      731.79622     -69.477009      662.31922    
    291000   294.64514      0.018708349    11.587104      731.02272     -64.431148      666.59157    
    292000   301.44414      0.018708349    8.2607896      747.89122     -57.263965      690.62725    
    293000   313.24425      0.018708349    9.1575678      777.16761     -58.150035      719.01758    
    294000   293.13251      0.018708349    17.696261      727.26983     -61.054561      666.21527    
    295000   299.85905      0.018708349    14.537069      743.95858     -56.225082      687.7335     
    296000   299.41357      0.018708349    10.248054      742.85332     -55.942978      686.91034    
    297000   298.00071      0.018708349    3.276169       739.34798     -56.362679      682.9853     
    298000   305.48826      0.018708349    9.5981179      757.9248      -49.018778      708.90602    
    299000   288.67448      0.018708349    11.113319      716.20935     -52.843109      663.36624    
    300000   294.4895       0.018708349    7.8924365      730.63656     -54.710563      675.926      
    301000   298.59767      0.018708349    9.3624531      740.82906     -51.30976       689.5193     
    302000   293.29125      0.018708349    10.211905      727.66367     -57.234108      670.42956    
    303000   307.20792      0.018708349    10.137585      762.19131     -55.793153      706.39816    
    304000   299.04635      0.018708349    9.3192361      741.94224     -54.668497      687.27374    
    305000   292.0136       0.018708349    9.147812       724.49379     -49.803335      674.69046    
    306000   304.0449       0.018708349    6.9130283      754.34379     -52.227653      702.11614    
    307000   303.37718      0.018708349    11.014863      752.68715     -50.438668      702.24848    
    308000   303.15728      0.018708349    13.356089      752.14156     -46.97893       705.16263    
    309000   288.50365      0.018708349    10.182058      715.7855      -48.80836       666.97714    
    310000   304.35024      0.018708349    8.0335748      755.10134     -50.6926        704.40874    
    311000   316.81727      0.018708349    10.352877      786.03238     -47.09918       738.9332     
    312000   298.15185      0.018708349    10.774358      739.72297     -48.251334      691.47164    
    313000   294.31031      0.018708349    9.5344235      730.19199     -48.895967      681.29603    
    314000   296.06281      0.018708349    5.1950851      734.54        -50.791668      683.74833    
    315000   311.47959      0.018708349    9.8046266      772.78945     -47.526655      725.2628     
    316000   305.13856      0.018708349    12.451174      757.05717     -47.334181      709.72299    
    317000   300.31324      0.018708349    9.9805109      745.08542     -47.080491      698.00493    
    318000   297.24667      0.018708349    7.5654242      737.47719     -47.920296      689.55689    
    319000   311.36371      0.018708349    11.080289      772.50194     -46.323609      726.17833    
    320000   289.50829      0.018708349    8.8242384      718.27805     -50.274675      668.00338    
    321000   299.04862      0.018708349    11.693254      741.94787     -51.334299      690.61357    
    322000   311.66283      0.018708349    10.104417      773.24407     -46.833737      726.41033    
    323000   300.98332      0.018708349    2.9557233      746.74791     -48.05843       698.68948    
    324000   294.3369       0.018708349    9.248202       730.25796     -47.266381      682.99157    
    325000   280.1647       0.018708349    10.881335      695.09635     -47.523023      647.57332    
    326000   296.8754       0.018708349    12.718207      736.55606     -46.132356      690.42371    
    327000   307.9074       0.018708349    6.7663063      763.92675     -43.959389      719.96736    
    328000   291.21728      0.018708349    6.899575       722.51811     -48.476397      674.04171    
    329000   301.27498      0.018708349    12.681822      747.47152     -49.44341       698.02811    
    330000   301.18686      0.018708349    1.1558996      747.25289     -53.064026      694.18887    
    331000   287.77071      0.018708349    9.78225        713.96706     -52.874987      661.09207    
    332000   301.01853      0.018708349    16.221424      746.83527     -53.588457      693.24681    
    333000   302.10762      0.018708349    14.121213      749.53734     -57.376861      692.16048    
    334000   320.87106      0.018708349    11.377819      796.08993     -53.854111      742.23582    
    335000   294.50941      0.018708349    8.5429892      730.68596     -52.901596      677.78437    
    336000   292.36484      0.018708349    16.432639      725.36522     -45.003893      680.36133    
    337000   310.55714      0.018708349    7.1365193      770.50083     -57.950741      712.55009    
    338000   302.26095      0.018708349    7.3032159      749.91775     -52.351017      697.56674    
    339000   301.54454      0.018708349    11.617927      748.14031     -53.607046      694.53327    
    340000   298.89477      0.018708349    17.605547      741.56616     -58.435856      683.13031    
    341000   308.19242      0.018708349    7.7893287      764.63388     -58.216238      706.41764    
    342000   296.79647      0.018708349    3.216932       736.36021     -55.673101      680.68711    
    343000   300.13102      0.018708349    10.766374      744.63334     -55.509204      689.12414    
    344000   306.92795      0.018708349    8.30609        761.4967      -58.19887       703.29783    
    345000   301.05198      0.018708349    7.2313745      746.91826     -58.054459      688.8638     
    346000   298.5432       0.018708349    12.581051      740.69391     -55.922397      684.77151    
    347000   314.86984      0.018708349    16.522179      781.20076     -54.098255      727.1025     
    348000   298.45763      0.018708349    6.0305148      740.48162     -52.733474      687.74814    
    349000   303.72429      0.018708349    7.8590783      753.54834     -48.539513      705.00883    
    350000   294.88712      0.018708349    17.113799      731.62307     -45.513         686.11007    
    351000   298.51242      0.018708349    14.298587      740.61755     -49.741018      690.87653    
    352000   304.41397      0.018708349    7.4067771      755.25944     -48.734798      706.52464    
    353000   313.40711      0.018708349    3.3141742      777.57169     -53.619627      723.95206    
    354000   296.06357      0.018708349    11.798695      734.54187     -47.019061      687.52281    
    355000   312.45234      0.018708349    13.586926      775.20287     -57.547626      717.65524    
    356000   285.06217      0.018708349    3.9898413      707.2471      -52.375926      654.87117    
    357000   292.72077      0.018708349    7.9239395      726.2483      -56.772323      669.47598    
    358000   301.41988      0.018708349    13.341035      747.83104     -46.422403      701.40864    
    359000   294.03704      0.018708349    10.369441      729.51399     -47.552193      681.9618     
    360000   307.20975      0.018708349    10.731191      762.19586     -51.254586      710.94127    
    361000   300.4557       0.018708349    10.421022      745.43888     -51.295533      694.14335    
    362000   299.01195      0.018708349    9.6202018      741.85689     -51.101466      690.75542    
    363000   302.64465      0.018708349    11.971815      750.86973     -50.584863      700.28486    
    364000   296.26518      0.018708349    12.08712       735.04209     -46.832462      688.20963    
    365000   300.90387      0.018708349    8.8673257      746.55081     -43.783842      702.76697    
    366000   301.7351       0.018708349    8.6610017      748.61309     -39.798614      708.81448    
    367000   291.20035      0.018708349    11.472124      722.47609     -40.020567      682.45552    
    368000   299.47387      0.018708349    11.339226      743.00292     -42.322102      700.68082    
    369000   308.49187      0.018708349    10.824981      765.37682     -42.398932      722.97789    
    370000   314.52665      0.018708349    11.487275      780.34929     -40.714669      739.63463    
    371000   305.14371      0.018708349    10.801913      757.06996     -43.716969      713.35299    
    372000   296.86257      0.018708349    9.6574688      736.52421     -47.392439      689.13177    
    373000   295.32569      0.018708349    9.066003       732.71119     -56.243499      676.46769    
    374000   304.6304       0.018708349    12.915574      755.79642     -55.307969      700.48846    
    375000   307.79109      0.018708349    10.579394      763.63819     -55.932646      707.70554    
    376000   295.08479      0.018708349    10.320004      732.11349     -54.097776      678.01572    
    377000   291.5942       0.018708349    9.5737996      723.45326     -51.785929      671.66733    
    378000   308.51527      0.018708349    9.9470328      765.4349      -48.414724      717.02017    
    379000   306.78446      0.018708349    9.6935499      761.14071     -51.735036      709.40568    
    380000   300.40267      0.018708349    10.312856      745.3073      -51.187585      694.11971    
    381000   289.32338      0.018708349    10.0412        717.81929     -52.426346      665.39294    
    382000   305.68743      0.018708349    10.304764      758.41893     -55.558976      702.85996    
    383000   308.00277      0.018708349    9.1178519      764.16335     -53.650145      710.51321    
    384000   306.34733      0.018708349    10.649653      760.05617     -46.977686      713.07848    
    385000   295.35787      0.018708349    7.2336393      732.791       -43.897509      688.8935     
    386000   288.98291      0.018708349    8.3439957      716.97457     -46.15324       670.82133    
    387000   303.51149      0.018708349    14.461586      753.02038     -49.682142      703.33824    
    388000   296.82283      0.018708349    11.829356      736.42562     -47.127961      689.29766    
    389000   293.94611      0.018708349    6.9290896      729.2884      -48.728453      680.55995    
    390000   281.92279      0.018708349    4.2118653      699.45822     -47.243394      652.21482    
    391000   287.45778      0.018708349    2.806721       713.19068     -44.163581      669.0271     
    392000   310.41326      0.018708349   -3.9763673      770.14386     -40.003903      730.13996    
    393000   296.71228      0.018708349    16.841796      736.15135     -39.330452      696.8209     
    394000   293.22467      0.018708349    4.3260209      727.49848     -39.78249       687.71599    
    395000   306.28333      0.018708349   -0.30818585     759.89738     -36.144854      723.75253    
    396000   300.15671      0.018708349    12.023555      744.69706     -33.30457       711.39249    
    397000   303.52341      0.018708349    12.974513      753.04994     -43.384025      709.66591    
    398000   287.0239       0.018708349    10.869898      712.1142      -36.206568      675.90764    
    399000   295.28311      0.018708349    4.1355502      732.60553     -37.916692      694.68884    
    400000   295.32026      0.018708349    12.588844      732.6977      -38.84947       693.84823    
    401000   299.17254      0.018708349    16.953837      742.25533     -43.091889      699.16344    
    402000   304.62676      0.018708349    7.8845987      755.78738     -44.265361      711.52202    
    403000   310.2065       0.018708349    1.1513117      769.63087     -42.377851      727.25302    
    404000   298.39671      0.018708349    12.331577      740.33046     -41.091161      699.2393     
    405000   299.10631      0.018708349    15.28079       742.09101     -41.15533       700.93568    
    406000   297.79083      0.018708349    3.8624569      738.82727     -37.015846      701.81142    
    407000   306.41458      0.018708349   -7.298626       760.22301     -40.041538      720.18148    
    408000   303.45002      0.018708349    10.754065      752.86786     -44.992371      707.87549    
    409000   294.31337      0.018708349    12.737507      730.19958     -41.083688      689.11589    
    410000   298.49379      0.018708349    11.009395      740.57133     -40.071838      700.4995     
    411000   299.07352      0.018708349    6.096095       742.00964     -42.068763      699.94088    
    412000   299.21403      0.018708349    10.040849      742.35826     -41.395389      700.96287    
    413000   293.98279      0.018708349    15.418835      729.37941     -40.011609      689.3678     
    414000   292.23425      0.018708349    4.5924948      725.04124     -38.173518      686.86772    
    415000   311.99757      0.018708349    4.1625062      774.07456     -32.388596      741.68597    
    416000   304.95276      0.018708349    9.7090128      756.59621     -34.951473      721.64474    
    417000   285.50498      0.018708349    21.714424      708.34572     -30.140462      678.20525    
    418000   299.40931      0.018708349    13.034151      742.84274     -35.269163      707.57358    
    419000   295.03336      0.018708349    9.3520149      731.98589     -37.067954      694.91794    
    420000   294.4633       0.018708349   -7.361638       730.57155     -38.513166      692.05839    
    421000   300.84401      0.018708349    6.1717282      746.40229     -36.12276       710.27953    
    422000   311.00562      0.018708349    24.35678       771.61351     -41.123708      730.4898     
    423000   298.51161      0.018708349    8.5379168      740.61554     -42.335038      698.2805     
    424000   300.92424      0.018708349   -1.4643679      746.60133     -45.485586      701.11575    
    425000   303.95078      0.018708349    20.305938      754.11027     -42.477821      711.63245    
    426000   295.39699      0.018708349    17.455112      732.88808     -40.986751      691.90133    
    427000   297.07136      0.018708349    6.6951267      737.04223     -41.907287      695.13494    
    428000   302.51293      0.018708349    4.3350122      750.54293     -44.634366      705.90856    
    429000   320.04898      0.018708349    25.191274      794.05034     -46.324151      747.72619    
    430000   296.2391       0.018708349    29.009013      734.97736     -39.585945      695.39142    
    431000   286.24137      0.018708349    6.8030814      710.17272     -45.28377       664.88895    
    432000   301.64691      0.018708349    2.3211897      748.39429     -46.910876      701.48342    
    433000   303.15653      0.018708349    8.6095601      752.1397      -40.943527      711.19618    
    434000   297.47634      0.018708349    18.088018      738.047       -43.644413      694.40259    
    435000   289.50709      0.018708349    9.6765496      718.27508     -48.347513      669.92757    
    436000   308.7811       0.018708349    8.8484128      766.09443     -43.000908      723.09352    
    437000   303.88494      0.018708349    9.9430525      753.9469      -44.06596       709.88094    
    438000   278.6222       0.018708349    9.7907597      691.26935     -42.456395      648.81296    
    439000   299.12564      0.018708349    7.1740831      742.13896     -43.004332      699.13463    
    440000   302.09356      0.018708349    7.7010975      749.50244     -47.773845      701.72859    
    441000   296.30899      0.018708349    9.9324987      735.15076     -45.175361      689.9754     
    442000   286.69509      0.018708349    10.622034      711.29841     -43.517747      667.78067    
    443000   302.92537      0.018708349    6.5970757      751.5662      -40.869682      710.69652    
    444000   308.97199      0.018708349    10.474338      766.56802     -45.385234      721.18278    
    445000   301.87834      0.018708349    12.242415      748.96849     -40.624005      708.34448    
    446000   297.91707      0.018708349    4.8223331      739.14047     -42.135903      697.00457    
    447000   301.76162      0.018708349    9.7031661      748.6789      -36.175723      712.50318    
    448000   298.20409      0.018708349    13.394652      739.85257     -36.092429      703.76014    
    449000   307.61874      0.018708349    9.2800994      763.21057     -35.755213      727.45535    
    450000   308.01256      0.018708349    10.262873      764.18765     -38.005613      726.18204    
    451000   294.54626      0.018708349    10.680577      730.77739     -33.364211      697.41318    
    452000   296.02609      0.018708349    10.003015      734.4489      -37.194893      697.254      
    453000   294.96083      0.018708349    14.7231        731.80594     -40.762743      691.0432     
    454000   294.05685      0.018708349    13.88548       729.56316     -38.333591      691.22957    
    455000   293.22183      0.018708349    10.58921       727.49143     -33.095809      694.39562    
    456000   299.80322      0.018708349    9.2201173      743.82005     -33.334384      710.48566    
    457000   306.67079      0.018708349    10.083284      760.85868     -34.005893      726.85278    
    458000   299.92347      0.018708349    7.3033003      744.1184      -33.920139      710.19826    
    459000   291.53043      0.018708349    8.250084       723.29504     -43.704452      679.59059    
    460000   301.0836       0.018708349    7.0652181      746.9967      -43.212625      703.78408    
    461000   295.36473      0.018708349    9.4413978      732.80804     -31.181367      701.62668    
    462000   309.0932       0.018708349    19.862527      766.86874     -40.733199      726.13554    
    463000   306.03799      0.018708349    4.6749004      759.28869     -36.109755      723.17893    
    464000   279.73611      0.018708349    9.4496538      694.03299     -38.743599      655.28939    
    465000   282.56794      0.018708349    4.8354076      701.05885     -39.455223      661.60363    
    466000   308.70225      0.018708349    15.755912      765.89879     -39.140542      726.75825    
    467000   297.20484      0.018708349    0.50955189     737.3734      -37.528859      699.84454    
    468000   286.44171      0.018708349    8.9769892      710.66978     -38.180695      672.48908    
    469000   296.24794      0.018708349    21.942609      734.99929     -37.983885      697.01541    
    470000   302.20666      0.018708349    17.384714      749.78306     -40.86611       708.91694    
    471000   314.01734      0.018708349    7.4104831      779.08568     -37.178116      741.90757    
    472000   295.02973      0.018708349   -5.3045994      731.97688     -37.526756      694.45013    
    473000   278.63548      0.018708349    2.9702964      691.30232     -33.848817      657.4535     
    474000   295.48795      0.018708349    10.959167      733.11374     -39.230043      693.88369    
    475000   301.6335       0.018708349    12.217178      748.36102     -36.980426      711.38059    
    476000   302.43676      0.018708349    23.474975      750.35393     -31.320887      719.03304    
    477000   309.49542      0.018708349    7.1499646      767.86666     -33.819607      734.04705    
    478000   306.68518      0.018708349    2.8136028      760.89439     -34.773726      726.12066    
    479000   301.68185      0.018708349   -1.2334418      748.48099     -35.03082       713.45017    
    480000   290.49909      0.018708349    10.593188      720.73625     -37.24132       683.49493    
    481000   300.11237      0.018708349    19.186738      744.58707     -38.16709       706.41998    
    482000   314.26907      0.018708349    9.1240006      779.71022     -33.123034      746.58718    
    483000   301.26374      0.018708349    7.9507152      747.44365     -35.730744      711.71291    
    484000   304.53959      0.018708349    7.5155818      755.57112     -36.381462      719.18966    
    485000   310.21075      0.018708349    9.9136517      769.64142     -34.32461       735.31681    
    486000   305.59528      0.018708349    26.566115      758.19032     -35.733268      722.45705    
    487000   292.50877      0.018708349    7.7027338      725.72232     -32.250477      693.47184    
    488000   307.20762      0.018708349    12.918161      762.19057     -37.859329      724.33125    
    489000   315.58555      0.018708349    8.1520777      782.97645     -35.014063      747.96239    
    490000   291.47451      0.018708349    10.284532      723.15628     -36.856577      686.29971    
    491000   300.91139      0.018708349    12.663909      746.56945     -44.675092      701.89436    
    492000   303.74212      0.018708349    11.778419      753.59257     -40.327725      713.26484    
    493000   317.47516      0.018708349    10.146118      787.66462     -37.641389      750.02323    
    494000   288.10719      0.018708349    7.8863017      714.80188     -40.042742      674.75913    
    495000   292.45102      0.018708349    13.573649      725.57904     -35.222021      690.35702    
    496000   309.74284      0.018708349    10.594173      768.48053     -34.689749      733.79078    
    497000   287.6456       0.018708349    9.446584       713.65667     -30.959482      682.69719    
    498000   297.05847      0.018708349    8.5394208      737.01026     -31.766855      705.24341    
    499000   312.26724      0.018708349    10.518089      774.74363     -30.642308      744.10133    
    500000   292.04837      0.018708349    9.5945075      724.58005     -32.637598      691.94245    
    501000   287.33578      0.018708349    7.2522925      712.888       -33.416008      679.47199    
    502000   304.95618      0.018708349    14.076506      756.60468     -34.558508      722.04617    
    503000   319.12271      0.018708349    10.576476      791.75223     -34.770911      756.98132    
    504000   293.82257      0.018708349    8.8599001      728.98189     -32.942928      696.03896    
    505000   293.17631      0.018708349    13.720178      727.37849     -32.760413      694.61808    
    506000   314.50536      0.018708349    10.979336      780.29646     -33.835724      746.46073    
    507000   291.42115      0.018708349    5.271251       723.0239      -31.394626      691.62928    
    508000   297.54852      0.018708349    12.827485      738.22608     -30.687089      707.53899    
    509000   310.81246      0.018708349    21.757326      771.13428     -30.144782      740.9895     
    510000   301.65583      0.018708349    7.954226       748.41643     -34.739691      713.67674    
    511000   296.56537      0.018708349    9.0117667      735.78686     -29.789872      705.99699    
    512000   296.44222      0.018708349    10.769531      735.48132     -28.713645      706.76768    
    513000   300.97214      0.018708349    10.712806      746.72018     -25.604549      721.11564    
    514000   301.30537      0.018708349    9.4853443      747.54692     -30.173992      717.37293    
    515000   295.08471      0.018708349    8.8721935      732.11329     -27.158241      704.95505    
    516000   297.85116      0.018708349    10.815973      738.97693     -27.73406       711.24287    
    517000   328.06904      0.018708349    13.679588      813.94832     -30.883787      783.06454    
    518000   297.0948       0.018708349    8.7025168      737.10038     -31.993089      705.1073     
    519000   278.44051      0.018708349    4.9493196      690.81857     -33.822266      656.9963     
    520000   309.1691       0.018708349    12.346547      767.05707     -32.700053      734.35701    
    521000   322.34988      0.018708349    13.023442      799.75895     -36.136614      763.62234    
    522000   295.704        0.018708349    7.9680922      733.64978     -33.542542      700.10724    
    523000   293.68134      0.018708349    8.079219       728.63149     -37.545986      691.08551    
    524000   303.10016      0.018708349    12.026956      751.99986     -39.080598      712.91926    
    525000   307.11903      0.018708349    10.531149      761.97078     -35.915071      726.05571    
    526000   285.49659      0.018708349    6.8659681      708.32491     -35.749935      672.57497    
    527000   301.75484      0.018708349    11.141717      748.66208     -34.450047      714.21203    
    528000   319.58124      0.018708349    6.7548722      792.88987     -31.867138      761.02273    
    529000   299.29375      0.018708349    7.1892706      742.55604     -29.260821      713.29522    
    530000   283.94726      0.018708349    15.66941       704.48099     -28.691089      675.7899     
    531000   290.52553      0.018708349    15.51934       720.80185     -26.852697      693.94916    
    532000   306.81018      0.018708349    15.32486       761.20452     -29.408887      731.79563    
    533000   299.8954       0.018708349    9.3498082      744.04876     -27.573608      716.47515    
    534000   298.63535      0.018708349    8.2677162      740.92254     -26.506371      714.41617    
    535000   296.94722      0.018708349    11.235596      736.73423     -27.272763      709.46147    
    536000   295.27386      0.018708349    12.794786      732.5826      -28.714605      703.86799    
    537000   305.00853      0.018708349    9.0717718      756.73458     -33.379191      723.35539    
    538000   307.70932      0.018708349    2.9040459      763.4353      -35.342981      728.09232    
    539000   283.20976      0.018708349    7.3075814      702.65123     -35.916935      666.73429    
    540000   302.96594      0.018708349    13.550465      751.66684     -33.394748      718.27209    
    541000   303.22176      0.018708349    3.2361714      752.30154     -34.341182      717.96036    
    542000   286.01622      0.018708349    6.1980532      709.61412     -33.002504      676.61162    
    543000   296.09909      0.018708349    15.637938      734.63001     -27.95538       706.67463    
    544000   299.14663      0.018708349    6.901629       742.19103     -34.277421      707.9136     
    545000   294.26831      0.018708349    10.573553      730.08779     -32.522953      697.56483    
    546000   320.47726      0.018708349    12.759036      795.11292     -28.698241      766.41468    
    547000   309.04521      0.018708349    7.8993724      766.74967     -29.66677       737.0829     
    548000   298.3006       0.018708349    9.9501245      740.09201     -33.073873      707.01814    
    549000   287.88537      0.018708349    9.7315008      714.25153     -24.531701      689.71983    
    550000   316.96515      0.018708349    14.089571      786.39927     -31.62702       754.77225    
    551000   312.47763      0.018708349    9.8695435      775.26561     -37.431638      737.83398    
    552000   292.10848      0.018708349    9.9553769      724.72918     -35.843268      688.88592    
    553000   289.87915      0.018708349    8.2471218      719.19817     -35.519961      683.67821    
    554000   311.92737      0.018708349    10.019248      773.90041     -36.797186      737.10323    
    555000   292.01158      0.018708349    10.890373      724.48878     -30.384046      694.10473    
    556000   293.47311      0.018708349    8.6156013      728.11487     -26.227835      701.88704    
    557000   308.88838      0.018708349    10.969387      766.36058     -27.572025      738.78855    
    558000   306.90254      0.018708349    10.575021      761.43366     -28.620262      732.8134     
    559000   285.65126      0.018708349    12.459293      708.70864     -30.793965      677.91467    
    560000   296.11765      0.018708349    9.2631924      734.67605     -32.144577      702.53147    
    561000   310.28759      0.018708349    8.3771181      769.83207     -31.139558      738.69251    
    562000   297.14953      0.018708349    16.631746      737.23617     -29.284077      707.9521     
    563000   298.52448      0.018708349    11.499438      740.64747     -27.359547      713.28792    
    564000   312.92744      0.018708349    9.4098732      776.3816      -24.255566      752.12604    
    565000   301.51714      0.018708349    7.7161458      748.07234     -24.477637      723.59471    
    566000   293.35945      0.018708349    5.4952271      727.83288     -22.667382      705.1655     
    567000   303.31118      0.018708349    12.447216      752.52339     -21.826614      730.69678    
    568000   300.51132      0.018708349    9.3379443      745.57688     -27.379156      718.19772    
    569000   304.03514      0.018708349    4.2462008      754.31957     -29.060603      725.25897    
    570000   304.01803      0.018708349    10.740997      754.2771      -29.261741      725.01536    
    571000   302.5829       0.018708349    15.949977      750.71652     -27.665886      723.05063    
    572000   286.83351      0.018708349    5.5122692      711.64185     -32.245322      679.39653    
    573000   293.3064       0.018708349    3.7147486      727.70126     -33.520117      694.18114    
    574000   303.47795      0.018708349    3.3001264      752.93715     -32.034748      720.9024     
    575000   307.25237      0.018708349    9.8442775      762.30161     -37.657675      724.64394    
    576000   296.71856      0.018708349    15.789634      736.16693     -32.585114      703.58182    
    577000   282.90832      0.018708349    15.57316       701.90334     -30.526913      671.37643    
    578000   301.38783      0.018708349    7.4640614      747.7515      -32.292999      715.45851    
    579000   317.20912      0.018708349    11.882779      787.00457     -34.737371      752.2672     
    580000   291.8466       0.018708349    10.792533      724.07945     -33.909877      690.16958    
    581000   294.18601      0.018708349    10.764659      729.88359     -31.637918      698.24567    
    582000   297.39279      0.018708349    1.7997443      737.83971     -33.696839      704.14287    
    583000   310.33618      0.018708349    10.674489      769.95261     -33.118309      736.83431    
    584000   315.30287      0.018708349    14.860622      782.27512     -28.618184      753.65693    
    585000   281.75157      0.018708349    14.543745      699.03342     -23.344222      675.6892     
    586000   296.6196       0.018708349    11.076621      735.9214      -24.29248       711.62892    
    587000   298.7218       0.018708349    8.8115019      741.13703     -25.782874      715.35415    
    588000   302.84906      0.018708349    8.8723555      751.37686     -24.912622      726.46424    
    589000   296.03545      0.018708349    14.420444      734.47212     -28.03512       706.437      
    590000   298.30402      0.018708349    8.8851511      740.10049     -29.009109      711.09138    
    591000   299.93947      0.018708349    9.7386049      744.1581      -28.948139      715.20996    
    592000   290.53541      0.018708349    8.3216945      720.82637     -28.37781       692.44856    
    593000   300.87934      0.018708349    8.5787118      746.48995     -30.043661      716.44628    
    594000   294.66378      0.018708349    16.472947      731.06895     -31.104204      699.96475    
    595000   304.8581       0.018708349    8.861745       756.36134     -28.25996       728.10138    
    596000   308.14431      0.018708349    5.0232491      764.51453     -27.305648      737.20889    
    597000   298.69952      0.018708349    13.645117      741.08173     -28.911056      712.17068    
    598000   288.27742      0.018708349    2.7929269      715.22423     -28.181013      687.04321    
    599000   307.11359      0.018708349    8.6218418      761.95729     -29.888457      732.06884    
    600000   296.03092      0.018708349    12.524968      734.46086     -27.742188      706.71868    
    601000   305.67517      0.018708349    9.2824905      758.38853     -26.447086      731.94144    
    602000   300.70218      0.018708349    10.147531      746.05039     -29.953919      716.09647    
    603000   294.31492      0.018708349    9.7941609      730.20343     -33.128279      697.07515    
    604000   310.39273      0.018708349    10.510047      770.09293     -36.207654      733.88527    
    605000   296.50833      0.018708349    10.811121      735.64534     -40.393506      695.25183    
    606000   290.89279      0.018708349    10.782913      721.71303     -41.380693      680.33234    
    607000   292.3718       0.018708349    9.8577218      725.3825      -39.628468      685.75403    
    608000   310.32755      0.018708349    11.019253      769.9312      -36.081804      733.8494     
    609000   315.51746      0.018708349    8.1109808      782.80751     -36.962872      745.84464    
    610000   289.88063      0.018708349    12.285645      719.20184     -35.308943      683.89289    
    611000   308.99972      0.018708349    12.313276      766.63683     -36.625848      730.01098    
    612000   308.36074      0.018708349    6.8255513      765.05149     -37.649137      727.40235    
    613000   283.63333      0.018708349    8.5373389      703.70211     -38.373616      665.32849    
    614000   311.24757      0.018708349    10.597438      772.21381     -33.001863      739.21195    
    615000   309.75371      0.018708349    10.303181      768.50748     -36.938363      731.56912    
    616000   300.51197      0.018708349    11.633665      745.57848     -35.08526       710.49322    
    617000   293.34209      0.018708349    9.002873       727.78982     -28.134099      699.65572    
    618000   300.3245       0.018708349    10.186168      745.11337     -32.055992      713.05738    
    619000   302.65503      0.018708349    13.297657      750.89548     -30.253986      720.6415     
    620000   308.39611      0.018708349    9.2627609      765.13926     -31.325899      733.81336    
    621000   302.37314      0.018708349    12.503888      750.19609     -33.112222      717.08387    
    622000   304.82236      0.018708349    8.9194704      756.27267     -33.02223       723.25044    
    623000   307.93938      0.018708349    5.8582868      764.00609     -36.246541      727.75955    
    624000   297.27962      0.018708349    9.1430193      737.55892     -44.792349      692.76657    
    625000   298.28075      0.018708349    7.8446996      740.04276     -44.208511      695.83425    
    626000   300.73059      0.018708349    11.23457       746.12087     -40.765225      705.35565    
    627000   298.15143      0.018708349    9.5728373      739.72192     -41.133948      698.58798    
    628000   301.05464      0.018708349    9.0498482      746.92485     -40.923892      706.00096    
    629000   296.07942      0.018708349    10.292564      734.58121     -40.41923       694.16198    
    630000   303.10536      0.018708349    12.225716      752.01276     -36.580533      715.43222    
    631000   298.00562      0.018708349    11.115916      739.36016     -34.102113      705.25805    
    632000   302.24739      0.018708349    9.1872368      749.88409     -35.637925      714.24617    
    633000   295.87325      0.018708349    11.439873      734.06968     -31.689673      702.38       
    634000   308.84921      0.018708349    14.531801      766.26341     -36.212537      730.05087    
    635000   302.8377       0.018708349    9.6060481      751.34869     -34.095441      717.25325    
    636000   302.01851      0.018708349    8.4099439      749.31625     -37.371277      711.94497    
    637000   298.29717      0.018708349    10.360921      740.08349     -35.932177      704.15132    
    638000   291.31197      0.018708349    20.618248      722.75303     -39.752894      683.00013    
    639000   299.86625      0.018708349    10.17666       743.97643     -34.543853      709.43258    
    640000   304.10974      0.018708349    7.5512925      754.50465     -31.543856      722.96079    
    641000   287.18884      0.018708349    11.513633      712.52344     -32.084223      680.43922    
    642000   297.21801      0.018708349    10.310983      737.40606     -36.302731      701.10333    
    643000   303.89406      0.018708349    8.4543085      753.96955     -34.41676       719.55278    
    644000   313.65861      0.018708349    14.605982      778.19565     -31.086233      747.10941    
    645000   302.27936      0.018708349    10.619397      749.96342     -40.633422      709.33       
    646000   294.5778       0.018708349    10.706643      730.85565     -36.809324      694.04632    
    647000   300.12468      0.018708349    10.881029      744.6176      -37.58732       707.03028    
    648000   301.78116      0.018708349    6.2447585      748.72738     -41.422657      707.30472    
    649000   301.8294       0.018708349    10.886517      748.84706     -39.96206       708.88501    
    650000   297.26838      0.018708349    10.440002      737.53104     -37.103326      700.42771    
    651000   304.91031      0.018708349    5.9311454      756.49087     -35.378571      721.1123     
    652000   295.95646      0.018708349    8.0179264      734.27613     -31.005638      703.27049    
    653000   303.99541      0.018708349    11.321022      754.22098     -33.198406      721.02257    
    654000   303.48333      0.018708349    10.098747      752.9505      -35.864546      717.08596    
    655000   288.55756      0.018708349    8.8583004      715.91925     -33.190034      682.72922    
    656000   291.34818      0.018708349    9.4680996      722.84286     -34.501657      688.34121    
    657000   298.97049      0.018708349    5.2239047      741.75404     -34.121469      707.63257    
    658000   306.89484      0.018708349    11.232744      761.41457     -31.461302      729.95327    
    659000   289.66802      0.018708349    10.772626      718.67434     -36.437162      682.23718    
    660000   309.91689      0.018708349    7.8525866      768.91234     -30.980869      737.93147    
    661000   308.0393       0.018708349    7.9282191      764.254       -30.692238      733.56176    
    662000   302.56954      0.018708349    9.0755718      750.68338     -32.700714      717.98267    
    663000   291.79033      0.018708349    13.871013      723.93985     -30.576108      693.36375    
    664000   295.56211      0.018708349    10.167751      733.29774     -26.949874      706.34787    
    665000   300.80621      0.018708349    8.4722065      746.3085      -28.716962      717.59154    
    666000   307.44244      0.018708349    9.9666775      762.77316     -30.152467      732.62069    
    667000   283.00901      0.018708349    14.913357      702.15315     -27.489714      674.66344    
    668000   297.94978      0.018708349    7.9922434      739.22161     -34.141295      705.08032    
    669000   307.34175      0.018708349    4.9940866      762.52334     -33.737288      728.78606    
    670000   297.75782      0.018708349    11.618001      738.74536     -32.070397      706.67496    
    671000   296.22486      0.018708349    14.469967      734.94204     -37.924543      697.01749    
    672000   297.44773      0.018708349    5.9925716      737.97602     -39.609371      698.36665    
    673000   308.66422      0.018708349    2.0078215      765.80445     -35.102389      730.70206    
    674000   299.61127      0.018708349    10.662127      743.34382     -35.570122      707.7737     
    675000   299.80779      0.018708349    12.386722      743.83138     -35.531707      708.29968    
    676000   305.48604      0.018708349    7.9929803      757.91927     -32.360727      725.55855    
    677000   315.82151      0.018708349    12.243163      783.56188     -35.122559      748.43932    
    678000   297.64941      0.018708349    13.140471      738.4764      -30.769387      707.70701    
    679000   293.44032      0.018708349    10.138025      728.03351     -29.965237      698.06828    
    680000   279.71609      0.018708349    9.6603122      693.98333     -36.131375      657.85196    
    681000   298.90399      0.018708349    5.9018401      741.58905     -32.821369      708.76768    
    682000   318.69807      0.018708349    10.178632      790.69869     -34.134154      756.56453    
    683000   294.16952      0.018708349    10.142895      729.8427      -34.356822      695.48588    
    684000   294.34531      0.018708349    8.7819626      730.27883     -29.511252      700.76757    
    685000   319.61183      0.018708349    9.2835843      792.96577     -31.664192      761.30158    
    686000   307.35183      0.018708349    13.047033      762.54836     -29.993315      732.55504    
    687000   300.46334      0.018708349    9.8236112      745.45783     -32.965776      712.49206    
    688000   287.44669      0.018708349    10.710993      713.16317     -27.561474      685.60169    
    689000   305.71707      0.018708349    10.337811      758.49247     -28.976309      729.51616    
    690000   318.23701      0.018708349    10.423003      789.55479     -33.534432      756.02035    
    691000   294.56404      0.018708349    10.074692      730.8215      -37.54412       693.27738    
    692000   289.98568      0.018708349    6.105253       719.46248     -31.848882      687.6136     
    693000   307.89509      0.018708349    6.5335252      763.89621     -28.733301      735.16291    
    694000   305.99791      0.018708349    16.18407       759.18925     -33.493471      725.69578    
    695000   295.11004      0.018708349    5.9184312      732.17614     -38.291448      693.8847     
    696000   293.7046       0.018708349    6.6619826      728.68921     -33.619504      695.0697     
    697000   306.32664      0.018708349    10.104572      760.00485     -32.126297      727.87855    
    698000   306.18092      0.018708349    13.262039      759.6433      -32.330113      727.31319    
    699000   286.53699      0.018708349    10.281698      710.90616     -32.049161      678.857      
    700000   297.60163      0.018708349    3.9633742      738.35785     -35.764966      702.59288    
    701000   304.5473       0.018708349    12.168096      755.59024     -36.306085      719.28415    
    702000   283.58173      0.018708349    8.7737541      703.57408     -32.959237      670.61485    
    703000   293.05455      0.018708349    9.376434       727.07643     -33.500623      693.57581    
    704000   312.02657      0.018708349    8.5790917      774.14652     -30.403252      743.74327    
    705000   300.98955      0.018708349    12.766654      746.76336     -32.654711      714.10865    
    706000   303.68838      0.018708349    9.5401666      753.45923     -27.589151      725.87008    
    707000   295.42098      0.018708349    9.7493278      732.94759     -33.32163       699.62596    
    708000   301.08666      0.018708349    11.266175      747.00429     -33.582126      713.42217    
    709000   302.05659      0.018708349    10.73603       749.41073     -34.021682      715.38904    
    710000   297.00948      0.018708349    7.727879       736.88871     -30.030957      706.85776    
    711000   307.93342      0.018708349    11.830527      763.99129     -29.258308      734.73299    
    712000   295.00923      0.018708349    10.037622      731.92603     -25.316142      706.60989    
    713000   300.00342      0.018708349    10.018891      744.31676     -23.32134       720.99542    
    714000   307.16988      0.018708349    8.8111418      762.09695     -26.941217      735.15573    
    715000   301.84216      0.018708349    9.4797443      748.87872     -28.162019      720.7167     
    716000   284.67382      0.018708349    8.8871416      706.2836      -29.968914      676.31468    
    717000   297.39249      0.018708349    13.633962      737.83896     -31.769323      706.06963    
    718000   308.43388      0.018708349    9.8974811      765.23295     -28.738377      736.49457    
    719000   292.10689      0.018708349    8.1886605      724.72525     -26.421954      698.3033     
    720000   294.49449      0.018708349    13.019239      730.64895     -31.873059      698.77589    
    721000   300.46162      0.018708349    8.7298043      745.45356     -32.640408      712.81316    
    722000   300.45002      0.018708349    7.5518263      745.42479     -31.722894      713.70189    
    723000   288.61844      0.018708349    10.347872      716.07031     -35.768809      680.3015     
    724000   300.07025      0.018708349    13.406632      744.48257     -37.769431      706.71314    
[...]
   3823000   299.54069      0.018708349    9.7178892      743.16872     -37.511231      705.65748    
   3824000   308.01839      0.018708349    14.830772      764.20211     -38.604853      725.59726    
   3825000   301.21627      0.018708349    6.2533827      747.32586     -35.467856      711.858      
   3826000   308.20126      0.018708349    7.7426769      764.65582     -38.244898      726.41092    
   3827000   304.0204       0.018708349    9.6757223      754.283       -36.211761      718.07124    
   3828000   300.38705      0.018708349    14.65678       745.26856     -35.255118      710.01345    
   3829000   303.83252      0.018708349    10.847813      753.81685     -36.141092      717.67576    
   3830000   303.75857      0.018708349    9.760198       753.63339     -33.577695      720.05569    
   3831000   306.98527      0.018708349    0.19352508     761.63891     -38.736061      722.90284    
   3832000   296.56386      0.018708349    8.0691471      735.78312     -38.087675      697.69545    
   3833000   289.63491      0.018708349    17.625684      718.59221     -32.609565      685.98264    
   3834000   305.94022      0.018708349    4.4551638      759.04611     -31.966726      727.07939    
   3835000   292.25316      0.018708349    4.0043936      725.08815     -32.985276      692.10287    
   3836000   299.46421      0.018708349    13.522168      742.97896     -36.980229      705.99873    
   3837000   308.60041      0.018708349    7.205546       765.64611     -35.947024      729.69909    
   3838000   310.83345      0.018708349    4.2851823      771.18635     -31.258777      739.92758    
   3839000   294.33561      0.018708349    5.1879847      730.25477     -29.882745      700.37202    
   3840000   295.13705      0.018708349    13.663015      732.24315     -27.205466      705.03769    
   3841000   298.62924      0.018708349    16.591646      740.90738     -31.093176      709.8142     
   3842000   311.50372      0.018708349    0.78694622     772.8493      -30.039309      742.80999    
   3843000   302.0511       0.018708349    9.486692       749.39711     -31.864109      717.533      
   3844000   299.80175      0.018708349    13.195967      743.81641     -32.436231      711.38018    
   3845000   282.74921      0.018708349    4.3819402      701.50858     -30.757313      670.75127    
   3846000   295.79425      0.018708349    10.915276      733.87368     -30.992945      702.88074    
   3847000   307.07011      0.018708349    12.662376      761.84941     -27.313326      734.53608    
   3848000   310.41595      0.018708349    13.547323      770.15053     -31.03914       739.11138    
   3849000   306.3197       0.018708349    2.7076832      759.98762     -25.661384      734.32623    
   3850000   294.9908       0.018708349    10.881772      731.88031     -29.235501      702.6448     
   3851000   321.18088      0.018708349    14.048282      796.85862     -26.018477      770.84014    
   3852000   296.97682      0.018708349    9.1802645      736.80769     -23.761742      713.04594    
   3853000   296.27194      0.018708349    6.8945703      735.05884     -28.311619      706.74722    
   3854000   288.66209      0.018708349    8.5957052      716.17861     -33.136678      683.04193    
   3855000   296.08218      0.018708349    12.629415      734.58805     -36.179637      698.40841    
   3856000   308.14253      0.018708349    12.507955      764.51012     -36.89039       727.61973    
   3857000   315.69216      0.018708349    5.0334766      783.24096     -36.311655      746.9293     
   3858000   285.01339      0.018708349    6.028256       707.12609     -31.383528      675.74256    
   3859000   296.89275      0.018708349    17.643371      736.59911     -28.285977      708.31313    
   3860000   310.60905      0.018708349    10.105276      770.62961     -32.811786      737.81782    
   3861000   305.92478      0.018708349    9.4915409      759.00781     -33.196         725.81181    
   3862000   286.04844      0.018708349    8.682164       709.69407     -33.645331      676.04874    
   3863000   297.75081      0.018708349    11.902437      738.72797     -31.770271      706.9577     
   3864000   303.23697      0.018708349    13.706469      752.33929     -28.891974      723.44731    
   3865000   311.27443      0.018708349    9.7530714      772.28043     -28.39434       743.88609    
   3866000   313.16932      0.018708349    1.367193       776.98171     -30.543373      746.43834    
   3867000   293.94562      0.018708349    10.619123      729.28719     -31.393653      697.89354    
   3868000   301.69874      0.018708349    9.9443332      748.52289     -32.087492      716.43539    
   3869000   296.52173      0.018708349    9.0996057      735.67859     -36.208135      699.47046    
   3870000   293.97856      0.018708349    10.020853      729.36891     -31.027838      698.34108    
   3871000   302.75761      0.018708349    8.6260401      751.14998     -32.969616      718.18036    
   3872000   298.38585      0.018708349    13.435901      740.30351     -30.365145      709.93837    
   3873000   297.48854      0.018708349    13.145607      738.07726     -28.69595       709.38131    
   3874000   287.43678      0.018708349    8.8445402      713.13858     -27.278306      685.86027    
   3875000   305.55732      0.018708349    11.574615      758.09614     -26.950881      731.14525    
   3876000   313.28304      0.018708349    10.720928      777.26386     -25.04654       752.21732    
   3877000   287.64967      0.018708349    8.6201262      713.66677     -23.964678      689.70209    
   3878000   294.99602      0.018708349    9.5567578      731.89325     -22.818042      709.0752     
   3879000   312.11896      0.018708349    10.344147      774.37574     -25.171413      749.20433    
   3880000   309.6854       0.018708349    11.119134      768.33801     -27.103123      741.23489    
   3881000   296.54201      0.018708349    9.7448534      735.7289      -28.192901      707.536      
   3882000   307.36526      0.018708349    15.119802      762.58168     -26.764926      735.81675    
   3883000   311.51338      0.018708349    8.4513944      772.87329     -33.146719      739.72657    
   3884000   309.95071      0.018708349    7.6622904      768.99625     -33.538356      735.4579     
   3885000   296.62564      0.018708349    10.746036      735.93638     -34.780793      701.15558    
   3886000   290.64193      0.018708349    8.6500491      721.09065     -28.245433      692.84522    
   3887000   310.15848      0.018708349    7.0917636      769.51175     -30.762723      738.74902    
   3888000   305.83577      0.018708349    10.695327      758.78698     -31.638572      727.14841    
   3889000   298.04292      0.018708349    10.431257      739.4527      -35.973607      703.47909    
   3890000   299.23799      0.018708349    8.1817685      742.41771     -36.45641       705.9613     
   3891000   300.48668      0.018708349    10.128727      745.51574     -34.460759      711.05498    
   3892000   301.96335      0.018708349    12.475786      749.17939     -39.683564      709.49583    
   3893000   295.39766      0.018708349    12.064071      732.88973     -35.108584      697.78115    
   3894000   279.44408      0.018708349    7.8579016      693.30847     -34.01461       659.29386    
   3895000   298.91803      0.018708349    7.9150421      741.62387     -36.827305      704.79656    
   3896000   311.20033      0.018708349    10.988282      772.09661     -34.943357      737.15325    
   3897000   299.7214       0.018708349    10.450531      743.61705     -39.327277      704.28978    
   3898000   292.68881      0.018708349    9.7177158      726.16901     -31.389054      694.77996    
   3899000   306.43251      0.018708349    10.335606      760.2675      -36.15476       724.11274    
   3900000   309.8369       0.018708349    10.376381      768.7139      -36.831241      731.88266    
   3901000   296.48242      0.018708349    9.8623151      735.58106     -31.945676      703.63539    
   3902000   303.37458      0.018708349    12.588586      752.68069     -33.811961      718.86873    
   3903000   298.31563      0.018708349    7.2727834      740.12931     -30.515736      709.61357    
   3904000   299.76812      0.018708349    9.808538       743.73297     -31.709324      712.02365    
   3905000   283.71617      0.018708349    5.1349954      703.90764     -30.222052      673.68559    
   3906000   290.20454      0.018708349    9.5501299      720.00545     -31.204968      688.80048    
   3907000   306.20361      0.018708349    9.2133053      759.69959     -33.055742      726.64385    
   3908000   293.87106      0.018708349    9.5987966      729.10219     -28.020113      701.08208    
   3909000   289.32074      0.018708349    7.0747292      717.81273     -30.706004      687.10673    
   3910000   306.58538      0.018708349    7.7898641      760.64678     -35.0836        725.56318    
   3911000   313.21827      0.018708349    14.098099      777.10316     -33.345675      743.75749    
   3912000   291.70095      0.018708349    14.677839      723.7181      -32.552375      691.16572    
   3913000   296.26136      0.018708349    9.6454628      735.03259     -35.267037      699.76556    
   3914000   305.19314      0.018708349    4.8054979      757.19259     -38.636318      718.55627    
   3915000   299.88539      0.018708349    1.1323022      744.02392     -39.389901      704.63402    
   3916000   306.77139      0.018708349    11.204876      761.10827     -36.499117      724.60915    
   3917000   298.06206      0.018708349    12.968938      739.50018     -34.070419      705.42976    
   3918000   289.76905      0.018708349    9.1115809      718.925       -34.705079      684.21992    
   3919000   305.56452      0.018708349    4.2709029      758.114       -37.187238      720.92677    
   3920000   306.40181      0.018708349    8.2540703      760.19133     -39.666942      720.52439    
   3921000   297.59469      0.018708349    14.805319      738.34062     -35.532275      702.80834    
   3922000   295.92233      0.018708349    8.918945       734.19147     -36.785763      697.40571    
   3923000   301.97809      0.018708349    8.3798292      749.21596     -34.552847      714.66311    
   3924000   302.41165      0.018708349    10.144195      750.29164     -36.423091      713.86855    
   3925000   290.63419      0.018708349    11.002515      721.07144     -30.789785      690.28165    
   3926000   289.14211      0.018708349    9.7150518      717.36955     -33.114554      684.255      
   3927000   308.63467      0.018708349    7.7662477      765.73112     -35.051563      730.67955    
   3928000   308.79797      0.018708349    12.164069      766.13628     -31.536455      734.59983    
   3929000   296.41246      0.018708349    11.988049      735.40747     -32.286412      703.12106    
   3930000   302.45919      0.018708349    10.726849      750.40959     -34.155332      716.25426    
   3931000   295.39421      0.018708349    7.7081932      732.88117     -31.667437      701.21374    
   3932000   289.12863      0.018708349    6.3742774      717.33609     -30.654577      686.68151    
   3933000   305.61904      0.018708349    8.6895978      758.24927     -34.641219      723.60806    
   3934000   313.59625      0.018708349    12.809758      778.04093     -36.423779      741.61716    
   3935000   298.81223      0.018708349    11.998372      741.36137     -32.550916      708.81045    
   3936000   280.08322      0.018708349    8.0169189      694.8942      -30.219705      664.67449    
   3937000   301.03199      0.018708349    9.0557897      746.86866     -31.544775      715.32389    
   3938000   308.53996      0.018708349    10.872068      765.49615     -30.305073      735.19108    
   3939000   296.72857      0.018708349    9.7169115      736.19175     -32.361108      703.83065    
   3940000   295.16574      0.018708349    8.9701517      732.31433     -35.971356      696.34298    
   3941000   302.02157      0.018708349    10.017518      749.32385     -28.630166      720.69368    
   3942000   304.03797      0.018708349    8.2868882      754.32659     -31.86859       722.458      
   3943000   305.64111      0.018708349    13.800774      758.30403     -26.172473      732.13155    
   3944000   288.18772      0.018708349    14.140536      715.00168     -26.969697      688.03198    
   3945000   290.03336      0.018708349    7.2111124      719.58077     -28.76652       690.81425    
   3946000   308.66752      0.018708349    8.3218169      765.81262     -25.479705      740.33292    
   3947000   302.22712      0.018708349    9.3882105      749.83382     -20.763276      729.07054    
   3948000   300.7944       0.018708349    12.362734      746.2792      -22.341733      723.93746    
   3949000   299.68768      0.018708349    13.70689       743.5334      -24.812514      718.72089    
   3950000   294.64968      0.018708349    5.9609235      731.03399     -28.779522      702.25447    
   3951000   300.10123      0.018708349    1.8310831      744.55943     -31.05252       713.50691    
   3952000   297.29028      0.018708349    13.766165      737.58537     -29.278425      708.30695    
   3953000   306.02092      0.018708349    11.209194      759.24633     -31.234106      728.01223    
   3954000   301.81258      0.018708349    17.405161      748.80533     -30.565196      718.24013    
   3955000   282.10656      0.018708349   -6.9334577      699.91415     -34.157524      665.75662    
   3956000   305.30398      0.018708349    9.5692267      757.46759     -31.67867       725.78892    
   3957000   304.73143      0.018708349    15.348026      756.04708     -30.190676      725.8564     
   3958000   295.94966      0.018708349    8.6307448      734.25927     -30.758448      703.50082    
   3959000   295.41473      0.018708349    4.0432851      732.9321      -30.674785      702.25731    
   3960000   307.31931      0.018708349    14.094524      762.46769     -29.120165      733.34752    
   3961000   292.85809      0.018708349    9.3925377      726.589       -26.505936      700.08307    
   3962000   308.61372      0.018708349    8.547766       765.67913     -31.730463      733.94867    
   3963000   303.8756       0.018708349    12.48216       753.92374     -30.907747      723.016      
   3964000   286.07971      0.018708349    8.3580574      709.77166     -27.169573      682.60209    
   3965000   297.4992       0.018708349    9.87076        738.10371     -28.871074      709.23264    
   3966000   305.27879      0.018708349    10.289304      757.40509     -27.687188      729.71791    
   3967000   297.2012       0.018708349    10.6327        737.36436     -28.42452       708.93984    
   3968000   302.7763       0.018708349    1.9790298      751.19635     -28.774772      722.42158    
   3969000   307.90235      0.018708349    11.161114      763.91422     -28.536196      735.37802    
   3970000   286.72027      0.018708349    13.742212      711.3609      -39.103813      672.25709    
   3971000   301.53376      0.018708349    2.577579       748.11358     -36.843607      711.26997    
   3972000   314.57145      0.018708349    16.082556      780.46043     -38.349342      742.11109    
   3973000   290.56873      0.018708349    14.037592      720.90904     -35.281028      685.62801    
   3974000   295.9557       0.018708349    9.5310494      734.27425     -34.04881       700.22544    
   3975000   297.9317       0.018708349    6.006932       739.17677     -36.342548      702.83422    
   3976000   302.56749      0.018708349    15.406854      750.67829     -36.832047      713.84625    
   3977000   303.94725      0.018708349    16.097048      754.10151     -30.640304      723.46121    
   3978000   289.71871      0.018708349    0.060183419    718.80011     -29.424855      689.37525    
   3979000   306.52146      0.018708349    6.1548881      760.48819     -29.532984      730.95521    
   3980000   302.81779      0.018708349    5.4873961      751.29929     -30.986509      720.31278    
   3981000   301.47281      0.018708349    16.773913      747.96235     -26.70188       721.26047    
   3982000   307.13588      0.018708349    12.223403      762.01259     -33.026814      728.98578    
   3983000   290.56783      0.018708349    2.5265847      720.90679     -32.359139      688.54765    
   3984000   298.7498       0.018708349    12.093273      741.2065      -34.95956       706.24694    
   3985000   292.49921      0.018708349    14.395791      725.69861     -31.241642      694.45697    
   3986000   289.52645      0.018708349    8.8525727      718.32311     -34.336784      683.98632    
   3987000   302.80157      0.018708349    1.6162331      751.25905     -34.51701       716.74204    
   3988000   306.72086      0.018708349    16.298801      760.98291     -31.981259      729.00165    
   3989000   299.04012      0.018708349    13.321793      741.92678     -34.613945      707.31284    
   3990000   293.73918      0.018708349   -1.2218116      728.77501     -34.130232      694.64478    
   3991000   305.64526      0.018708349    10.804862      758.31431     -36.242746      722.07157    
   3992000   304.90386      0.018708349    10.928317      756.47487     -40.787329      715.68754    
   3993000   293.74179      0.018708349    7.2836357      728.78148     -37.412088      691.36939    
   3994000   302.8144       0.018708349    8.4937909      751.29087     -35.779108      715.51176    
   3995000   305.91738      0.018708349    9.9926137      758.98946     -38.322459      720.667      
   3996000   301.03576      0.018708349    12.279256      746.87801     -35.738891      711.13912    
   3997000   299.44431      0.018708349    10.602041      742.92958     -33.995516      708.93406    
   3998000   302.04491      0.018708349    8.6388654      749.38176     -35.017571      714.36418    
   3999000   299.88841      0.018708349    9.0921988      744.03142     -33.258509      710.77291    
   4000000   300.84573      0.018708349    10.803223      746.40655     -32.701168      713.70538    
Loop time of 10619.3 on 1 procs for 4000000 steps with 1500 atoms

Performance: 8.136 ns/day, 2.950 hours/ns, 376.672 timesteps/s, 565.008 katom-step/s
99.3% CPU use with 1 MPI tasks x 1 OpenMP threads

MPI task timing breakdown:
Section |  min time  |  avg time  |  max time  |%varavg| %total
---------------------------------------------------------------
Pair    | 717.02     | 717.02     | 717.02     |   0.0 |  6.75
Bond    | 181.49     | 181.49     | 181.49     |   0.0 |  1.71
Kspace  | 8871.7     | 8871.7     | 8871.7     |   0.0 | 83.54
Neigh   | 0.04377    | 0.04377    | 0.04377    |   0.0 |  0.00
Comm    | 26.929     | 26.929     | 26.929     |   0.0 |  0.25
Output  | 0.12799    | 0.12799    | 0.12799    |   0.0 |  0.00
Modify  | 803.54     | 803.54     | 803.54     |   0.0 |  7.57
Other   |            | 18.5       |            |       |  0.17

Nlocal:           1500 ave        1500 max        1500 min
Histogram: 1 0 0 0 0 0 0 0 0 0
Nghost:           1142 ave        1142 max        1142 min
Histogram: 1 0 0 0 0 0 0 0 0 0
Neighs:              0 ave           0 max           0 min
Histogram: 1 0 0 0 0 0 0 0 0 0

Total # of neighbors = 0
Ave neighs/atom = 0
Ave special neighs/atom = 2
Neighbor list builds = 17626
Dangerous builds = 0
write_data	last_conf.data pair ij
System init for write_data ...
PPPM initialization ...
  using 12-bit tables for long-range coulomb (src/kspace.cpp:342)
  G vector (1/distance) = 0.16711723
  grid = 27 27 27
  stencil order = 5
  estimated absolute RMS force accuracy = 0.032994381
  estimated relative force accuracy = 9.9361597e-05
  using double precision FFTW3
  3d grid and FFT values/proc = 32768 19683
Generated 1 of 1 mixed pair_coeff terms from arithmetic mixing rule
Total wall time: 2:56:59
