LAMMPS data file via write_data, version 29 Aug 2024, timestep = 0, units = real

1500 atoms
2 atom types
1000 bonds
1 bond types
500 angles
1 angle types

0 129.8 xlo xhi
0 129.8 ylo yhi
0 129.8 zlo zhi

Masses

1 12.0107
2 15.9994

PairIJ Coeffs # lj/cut/coul/long/gpu

1 1 0.053649 2.8 12
1 2 0.0917684 2.925 12
2 2 0.156973 3.05 12

Bond Coeffs # harmonic

1 0 1.16

Angle Coeffs # harmonic

1 0 180

Atoms # full

1 1 1 0.7 9.563231947907822 36.839348486736114 12.930016573858456 0 0 0
2 1 2 -0.35 8.555571203665606 37.07703451236967 12.406829057061898 0 0 0
3 1 2 -0.35 10.570892692150037 36.601662461102556 13.453204090655014 0 0 0
4 2 1 0.7 29.58855683905471 31.074793992505782 88.66263204462018 0 0 0
5 2 2 -0.35 29.935876695184295 31.575361083317993 87.67551426789143 0 0 0
6 2 2 -0.35 29.241236982925127 30.57422690169357 89.64974982134893 0 0 0
7 3 1 0.7 48.856773931280145 20.999463025293995 11.77506611616121 0 0 0
8 3 2 -0.35 48.39416507632717 19.935699810457486 11.774133335485176 0 0 0
9 3 2 -0.35 49.31938278623312 22.063226240130504 11.775998896837242 0 0 0
10 4 1 0.7 88.3362143214495 14.354100601726259 80.96881321322584 0 0 0
11 4 2 -0.35 87.2511550036905 14.55314453987742 81.32746037636761 0 0 0
12 4 2 -0.35 89.42127363920851 14.155056663575097 80.61016605008408 0 0 0
13 5 1 0.7 19.643674686571433 69.84045720605202 27.164262116124977 0 0 0
14 5 2 -0.35 19.47101591152701 70.12543565557226 28.27537697549335 0 0 0
15 5 2 -0.35 19.816333461615855 69.55547875653178 26.053147256756603 0 0 0
16 6 1 0.7 43.15338571246406 86.35366938335527 52.3213260518952 0 0 0
17 6 2 -0.35 42.06591152807464 86.52722902854552 51.95680314747353 0 0 0
18 6 2 -0.35 44.24085989685347 86.18010973816502 52.68584895631687 0 0 0
19 7 1 0.7 99.3269542025062 30.319281521774496 111.16453646391842 0 0 0
20 7 2 -0.35 98.30558160294103 30.58195763802182 110.68142232542657 0 0 0
21 7 2 -0.35 100.34832680207137 30.056605405527172 111.64765060241028 0 0 0
22 8 1 0.7 1.1643490767871725 99.21493356200632 94.58837663996424 0 0 0
23 8 2 -0.35 0.689455677057469 100.23236584382971 94.87976608863531 0 0 0
24 8 2 -0.35 1.639242476516876 98.19750128018293 94.29698719129317 0 0 0
25 9 1 0.7 86.24618787888727 63.07968045812086 103.58945963717507 0 0 0
26 9 2 -0.35 85.90543087583849 63.79169903327458 102.73945127632838 0 0 0
27 9 2 -0.35 86.58694488193605 62.36766188296714 104.43946799802175 0 0 0
28 10 1 0.7 20.64812200127548 77.58647543694195 25.092668683218154 0 0 0
29 10 2 -0.35 20.654701311249823 76.6269334627247 25.74446306214107 0 0 0
30 10 2 -0.35 20.641542691301133 78.54601741115921 24.44087430429524 0 0 0
31 11 1 0.7 12.282558847443463 50.96654898224703 44.588744625909605 0 0 0
32 11 2 -0.35 11.888147875890917 50.93737090339937 45.67924388094545 0 0 0
33 11 2 -0.35 12.676969818996008 50.9957270610947 43.49824537087376 0 0 0
34 12 1 0.7 67.63092766265895 14.401226308756149 94.21057126457364 0 0 0
35 12 2 -0.35 66.71158888403218 15.084634600037736 94.39324397058259 0 0 0
36 12 2 -0.35 68.55026644128571 13.717818017474562 94.0278985585647 0 0 0
37 13 1 0.7 96.67124368914928 46.99268353171306 102.83211750138184 0 0 0
38 13 2 -0.35 96.75621386597142 45.84184097370459 102.71404347490974 0 0 0
39 13 2 -0.35 96.58627351232714 48.14352608972153 102.95019152785395 0 0 0
40 14 1 0.7 12.398845724574686 58.40009292671461 112.56181929249401 0 0 0
41 14 2 -0.35 11.697826319065628 58.05926098097011 113.42089168633503 0 0 0
42 14 2 -0.35 13.099865130083744 58.74092487245912 111.70274689865299 0 0 0
43 15 1 0.7 121.29684894685488 127.14024978975779 78.57821645884692 0 0 0
44 15 2 -0.35 120.51021186964108 127.146364757918 77.72571149351421 0 0 0
45 15 2 -0.35 122.08348602406868 127.13413482159758 79.43072142417964 0 0 0
46 16 1 0.7 78.88402384011263 26.58868077285061 104.35774930015103 0 0 0
47 16 2 -0.35 77.73449653649173 26.43850544945506 104.31732219942518 0 0 0
48 16 2 -0.35 80.03355114373353 26.738856096246156 104.39817640087688 0 0 0
49 17 1 0.7 83.09248763811426 17.239733786154417 34.605743897243286 0 0 0
50 17 2 -0.35 82.12076116813697 17.81142255599836 34.87872671351527 0 0 0
51 17 2 -0.35 84.06421410809156 16.668045016310476 34.3327610809713 0 0 0
52 18 1 0.7 114.73768096786816 87.40402696011776 52.881118699107844 0 0 0
53 18 2 -0.35 113.92204243097969 88.0258124135627 52.339162402874734 0 0 0
54 18 2 -0.35 115.55331950475663 86.78224150667282 53.423074995340954 0 0 0
55 19 1 0.7 32.361975905467744 45.729043196388076 22.22900169437239 0 0 0
56 19 2 -0.35 32.18223526695976 46.040661798142686 21.126192939460985 0 0 0
57 19 2 -0.35 32.54171654397573 45.41742459463347 23.331810449283793 0 0 0
58 20 1 0.7 38.431477316763015 33.039262835885985 6.490482735769118 0 0 0
59 20 2 -0.35 39.35193644319389 32.97457095945644 7.193454966866569 0 0 0
60 20 2 -0.35 37.51101819033214 33.10395471231553 5.787510504671666 0 0 0
61 21 1 0.7 53.543340071543746 129.3165824357032 52.60099686328368 0 0 0
62 21 2 -0.35 54.3529767426728 128.58811195066943 53.000270219767344 0 0 0
63 21 2 -0.35 52.73370340041469 0.24505292073695273 52.20172350680002 0 1 0
64 22 1 0.7 126.95428120882917 68.20427679158946 45.480036244113016 0 0 0
65 22 2 -0.35 126.02897619629937 67.51990338965601 45.334971842851964 0 0 0
66 22 2 -0.35 127.87958622135898 68.88865019352292 45.62510064537407 0 0 0
67 23 1 0.7 120.5691548074452 97.98484873146977 58.752629812226 0 0 0
68 23 2 -0.35 121.33179355269166 98.58456027185494 58.116761734258766 0 0 0
69 23 2 -0.35 119.80651606219874 97.3851371910846 59.38849789019323 0 0 0
70 24 1 0.7 66.84925408225938 116.41336053331075 83.95048335350609 0 0 0
71 24 2 -0.35 66.02981636709944 117.15323734763406 84.30643859029894 0 0 0
72 24 2 -0.35 67.66869179741931 115.67348371898744 83.59452811671324 0 0 0
73 25 1 0.7 29.773722376475913 27.951981430664652 42.75190518077086 0 0 0
74 25 2 -0.35 28.729901709547722 27.46861517203253 42.60225400199311 0 0 0
75 25 2 -0.35 30.817543043404104 28.435347689296776 42.901556359548614 0 0 0
76 26 1 0.7 88.27037321583852 75.96263859782492 121.06691364323113 0 0 0
77 26 2 -0.35 87.18930707242113 76.2595469228469 120.76901862801722 0 0 0
78 26 2 -0.35 89.3514393592559 75.66573027280295 121.36480865844504 0 0 0
79 27 1 0.7 26.81760178525821 57.83320483464432 60.273655866958975 0 0 0
80 27 2 -0.35 25.970917164194123 57.7589682621713 59.48421677256282 0 0 0
81 27 2 -0.35 27.664286406322294 57.90744140711734 61.063094961355134 0 0 0
82 28 1 0.7 60.13415597944249 51.9595464898085 119.49785421141326 0 0 0
83 28 2 -0.35 59.30385925013871 52.51409880222483 120.08834474825626 0 0 0
84 28 2 -0.35 60.96445270874627 51.404994177392176 118.90736367457025 0 0 0
85 29 1 0.7 5.035731222217778 5.9346518141844555 57.293040998137116 0 0 0
86 29 2 -0.35 3.876358547376233 5.959445638361143 57.32202835940814 0 0 0
87 29 2 -0.35 6.195103897059322 5.909857990007768 57.264053636866095 0 0 0
88 30 1 0.7 67.74005569039846 31.315988527012987 118.61917350721508 0 0 0
89 30 2 -0.35 66.82023020106215 31.36502283904146 117.91410847091622 0 0 0
90 30 2 -0.35 68.65988117973478 31.266954214984516 119.32423854351394 0 0 0
91 31 1 0.7 34.24913576368668 92.02478028201722 93.48219986319644 0 0 0
92 31 2 -0.35 34.56131590532063 91.03923826963927 92.95603401386047 0 0 0
93 31 2 -0.35 33.93695562205273 93.01032229439517 94.00836571253241 0 0 0
94 32 1 0.7 56.13310074262932 42.62418137082094 18.416299387447676 0 0 0
95 32 2 -0.35 55.34172946816521 41.776726622644645 18.38235891387233 0 0 0
96 32 2 -0.35 56.92447201709342 43.47163611899724 18.45023986102302 0 0 0
97 33 1 0.7 79.54380483308054 82.52782958444573 2.431825779300102 0 0 0
98 33 2 -0.35 78.40267332098887 82.36446382282 2.5611722134983705 0 0 0
99 33 2 -0.35 80.68493634517222 82.69119534607145 2.3024793451018337 0 0 0
100 34 1 0.7 114.49587269681315 47.13241533838791 114.90459228554025 0 0 0
101 34 2 -0.35 113.49725507353516 47.08000771953408 114.3167008976422 0 0 0
102 34 2 -0.35 115.49449032009115 47.184822957241735 115.49248367343829 0 0 0
103 35 1 0.7 37.082543074657465 76.50145576796564 90.96709219821128 0 0 0
104 35 2 -0.35 35.936331513931606 76.67965785862994 90.9605292003243 0 0 0
105 35 2 -0.35 38.228754635383325 76.32325367730134 90.97365519609825 0 0 0
106 36 1 0.7 99.51857533693247 5.8956878240665835 51.42525908706023 0 0 0
107 36 2 -0.35 98.53794253967598 5.340839630165342 51.70112644408068 0 0 0
108 36 2 -0.35 100.49920813418896 6.450536017967825 51.14939173003979 0 0 0
109 37 1 0.7 95.92947622133862 40.9068520378819 100.66220068105599 0 0 0
110 37 2 -0.35 94.77026955803467 40.90427303360751 100.61938408977795 0 0 0
111 37 2 -0.35 97.08868288464257 40.909431042156285 100.70501727233403 0 0 0
112 38 1 0.7 16.40684650801441 54.669260198189534 101.85615097147235 0 0 0
113 38 2 -0.35 16.449834616992113 55.27854238289552 100.86998301321857 0 0 0
114 38 2 -0.35 16.363858399036708 54.059978013483544 102.84231892972612 0 0 0
115 39 1 0.7 93.92937753551145 43.44823934093502 109.55860309477832 0 0 0
116 39 2 -0.35 93.14079067110804 42.73366834904114 109.0969549009833 0 0 0
117 39 2 -0.35 94.71796439991486 44.1628103328289 110.02025128857333 0 0 0
118 40 1 0.7 8.6422139389637 3.4896721628912135 111.12004171261566 0 0 0
119 40 2 -0.35 8.390535679472334 3.5302530538030634 112.25168266494647 0 0 0
120 40 2 -0.35 8.893892198455065 3.4490912719793636 109.98840076028485 0 0 0
121 41 1 0.7 32.14106393137065 97.06149454650539 115.9388431160426 0 0 0
122 41 2 -0.35 31.62003150063059 97.81421582050845 115.22642758436163 0 0 0
123 41 2 -0.35 32.66209636211072 96.30877327250232 116.65125864772358 0 0 0
124 42 1 0.7 26.53625132792455 1.9760684278682195 112.78206718116164 0 0 0
125 42 2 -0.35 25.393630997782836 1.8095879447928067 112.89298620523695 0 0 0
126 42 2 -0.35 27.678871658066264 2.142548910943632 112.67114815708632 0 0 0
127 43 1 0.7 58.80311378361802 6.73336126810562 111.80283305114268 0 0 0
128 43 2 -0.35 59.90817335562553 6.791127575273613 111.45482960852931 0 0 0
129 43 2 -0.35 57.69805421161052 6.675594960937627 112.15083649375606 0 0 0
130 44 1 0.7 85.41509055486652 113.22695564153929 7.6434673506968975 0 0 0
131 44 2 -0.35 84.79431169921212 114.1092774482549 7.21715544402936 0 0 0
132 44 2 -0.35 86.03586941052093 112.34463383482368 8.069779257364434 0 0 0
133 45 1 0.7 91.55576316274505 128.51147625609838 20.38143624504164 0 0 0
134 45 2 -0.35 90.43379857334422 128.279482938706 20.5630252337384 0 0 0
135 45 2 -0.35 92.67772775214588 128.74346957349076 20.19984725634488 0 0 0
136 46 1 0.7 8.598970414790777 55.49576138858487 104.26165794574733 0 0 0
137 46 2 -0.35 8.291221542342532 55.153032244255066 105.32628340342426 0 0 0
138 46 2 -0.35 8.906719287239023 55.83849053291467 103.1970324880704 0 0 0
139 47 1 0.7 25.685094175341117 104.3778049581581 30.767931762881545 0 0 0
140 47 2 -0.35 24.961484237586543 104.52606471822193 31.66236325915649 0 0 0
141 47 2 -0.35 26.40870411309569 104.22954519809426 29.8735002666066 0 0 0
142 48 1 0.7 123.22913875013086 23.334973449043453 65.09875807329024 0 0 0
143 48 2 -0.35 122.21909040283307 22.769995914494864 65.1775154321618 0 0 0
144 48 2 -0.35 124.23918709742864 23.899950983592042 65.02000071441869 0 0 0
145 49 1 0.7 30.62693778892371 89.9434184407552 28.233733772409025 0 0 0
146 49 2 -0.35 30.8071095601396 89.05268402421136 27.5128105226513 0 0 0
147 49 2 -0.35 30.446766017707816 90.83415285729903 28.95465702216675 0 0 0
148 50 1 0.7 105.36351287847549 112.9609485374582 79.86206905956477 0 0 0
149 50 2 -0.35 104.69372076308446 112.16832852220703 80.38046276475731 0 0 0
150 50 2 -0.35 106.03330499386652 113.75356855270935 79.34367535437224 0 0 0
151 51 1 0.7 109.79468410499146 82.45575259153533 89.03380593435551 0 0 0
152 51 2 -0.35 108.97077433833037 83.01069121758786 89.63281830293852 0 0 0
153 51 2 -0.35 110.61859387165255 81.9008139654828 88.43479356577251 0 0 0
154 52 1 0.7 56.7763387129532 80.12474860424398 111.44979152840088 0 0 0
155 52 2 -0.35 56.72519225364905 78.96590845414009 111.45836743697468 0 0 0
156 52 2 -0.35 56.82748517225735 81.28358875434786 111.44121561982708 0 0 0
157 53 1 0.7 122.64621783338778 90.98312574819808 109.3944499650013 0 0 0
158 53 2 -0.35 121.60654647196796 90.9052810557219 108.8858994128467 0 0 0
159 53 2 -0.35 123.6858891948076 91.06097044067425 109.9030005171559 0 0 0
160 54 1 0.7 105.32056177673888 40.08178165027955 122.30419624834518 0 0 0
161 54 2 -0.35 104.6003515015441 40.95125004585411 122.57050784892024 0 0 0
162 54 2 -0.35 106.04077205193367 39.212313254704995 122.03788464777011 0 0 0
163 55 1 0.7 53.82634593724569 83.19616728825316 72.3836136708891 0 0 0
164 55 2 -0.35 53.00310217570205 83.02924550776794 73.18361793855217 0 0 0
165 55 2 -0.35 54.649589698789335 83.36308906873839 71.58360940322603 0 0 0
166 56 1 0.7 65.79496663324302 49.80420491518649 108.87200953926519 0 0 0
167 56 2 -0.35 64.65591064767789 49.74932653906533 108.65954818846804 0 0 0
168 56 2 -0.35 66.93402261880816 49.85908329130765 109.08447089006235 0 0 0
169 57 1 0.7 21.264326430048946 50.134309832628034 75.5453569792888 0 0 0
170 57 2 -0.35 20.15598435506416 50.2020653231535 75.20981705868013 0 0 0
171 57 2 -0.35 22.372668505033733 50.06655434210257 75.88089689989746 0 0 0
172 58 1 0.7 117.01475090673881 67.11848955904995 98.45401895244328 0 0 0
173 58 2 -0.35 117.38779869872923 66.10983490319255 98.88881905606364 0 0 0
174 58 2 -0.35 116.6417031147484 68.12714421490735 98.01921884882292 0 0 0
175 59 1 0.7 26.29653371409352 126.64213276973095 13.92546086782844 0 0 0
176 59 2 -0.35 26.040496656872655 125.58536832961805 13.521364414685685 0 0 0
177 59 2 -0.35 26.552570771314386 127.69889720984385 14.329557320971194 0 0 0
178 60 1 0.7 15.820805592565241 69.87959424400684 35.94045902282953 0 0 0
179 60 2 -0.35 14.800997864805254 69.61432654888182 35.455458766825394 0 0 0
180 60 2 -0.35 16.84061332032523 70.14486193913186 36.425459278833664 0 0 0
181 61 1 0.7 91.89479669579063 115.44806615302716 85.24783392727741 0 0 0
182 61 2 -0.35 90.82442128949096 115.74275501411744 85.58407039873481 0 0 0
183 61 2 -0.35 92.9651721020903 115.15337729193688 84.91159745582002 0 0 0
184 62 1 0.7 27.94481575123259 52.11833096608442 62.388546980818994 0 0 0
185 62 2 -0.35 28.508868546735346 52.92944208351343 62.996447629830485 0 0 0
186 62 2 -0.35 27.380762955729832 51.307219848655414 61.7806463318075 0 0 0
187 63 1 0.7 39.90910662473604 75.75504193853357 6.789860933548707 0 0 0
188 63 2 -0.35 38.84523782747092 76.18023134877636 6.60820976338166 0 0 0
189 63 2 -0.35 40.97297542200116 75.32985252829077 6.971512103715754 0 0 0
190 64 1 0.7 22.992710153103207 23.879543205573945 1.8826560812455864 0 0 0
191 64 2 -0.35 23.03295748277527 24.786682618592444 1.160798589906248 0 0 0
192 64 2 -0.35 22.952462823431144 22.972403792555447 2.6045135725849247 0 0 0
193 65 1 0.7 100.40075749456919 35.53121122416631 93.06704456315704 0 0 0
194 65 2 -0.35 100.67076574685113 34.91740490149057 94.01358423054712 0 0 0
195 65 2 -0.35 100.13074924228725 36.145017546842055 92.12050489576696 0 0 0
196 66 1 0.7 87.81797298035491 0.8718808248042507 116.10102248503875 0 0 0
197 66 2 -0.35 87.07516557778368 1.0987083843356769 115.23940399584392 0 0 0
198 66 2 -0.35 88.56078038292614 0.6450532652728246 116.9626409742336 0 0 0
199 67 1 0.7 26.48490604613205 47.61591734132539 63.722755655889756 0 0 0
200 67 2 -0.35 26.08868054482146 46.62457250106597 63.2690588851252 0 0 0
201 67 2 -0.35 26.88113154744264 48.607262181584815 64.17645242665432 0 0 0
202 68 1 0.7 8.554308539048913 83.66361579506827 10.990667712311572 0 0 0
203 68 2 -0.35 7.8996105803970975 84.32931882491978 10.302329089987015 0 0 0
204 68 2 -0.35 9.209006497700729 82.99791276521675 11.679006334636128 0 0 0
205 69 1 0.7 14.752240820579344 22.911471477016566 86.30111421733216 0 0 0
206 69 2 -0.35 13.649872051481237 22.967681628073322 86.65779827337518 0 0 0
207 69 2 -0.35 15.85460958967745 22.85526132595981 85.94443016128913 0 0 0
208 70 1 0.7 77.62665070147564 51.31833970095886 116.1353540153873 0 0 0
209 70 2 -0.35 76.51288033263052 51.39645600665856 115.82069005452362 0 0 0
210 70 2 -0.35 78.74042107032076 51.24022339525916 116.45001797625099 0 0 0
211 71 1 0.7 84.29493661424841 107.79967567296686 40.74903555361043 0 0 0
212 71 2 -0.35 85.33825778483087 107.36059968048721 41.002596607091576 0 0 0
213 71 2 -0.35 83.25161544366595 108.2387516654465 40.49547450012929 0 0 0
214 72 1 0.7 44.240549530573446 56.5159603478927 117.14556703257635 0 0 0
215 72 2 -0.35 43.08330506166572 56.534243174016105 117.22335506154877 0 0 0
216 72 2 -0.35 45.39779399948117 56.4976775217693 117.06777900360393 0 0 0
217 73 1 0.7 59.14511651049607 43.573191907337495 3.0363866212015913 0 0 0
218 73 2 -0.35 59.09322936996359 44.66716667988665 3.4186521332130644 0 0 0
219 73 2 -0.35 59.197003651028545 42.47921713478834 2.6541211091901182 0 0 0
220 74 1 0.7 21.149942535138663 74.68418807549597 51.14898486079136 0 0 0
221 74 2 -0.35 20.00059178994333 74.77980328855853 51.02468443621473 0 0 0
222 74 2 -0.35 22.299293280334 74.58857286243341 51.27328528536799 0 0 0
223 75 1 0.7 125.38855532025386 102.44926750652925 67.83898223686917 0 0 0
224 75 2 -0.35 124.85126545138891 101.75694359972438 67.07897749683032 0 0 0
225 75 2 -0.35 125.9258451891188 103.14159141333413 68.59898697690802 0 0 0
226 76 1 0.7 6.5744550599597655 37.06619274377181 61.30144457263009 0 0 0
227 76 2 -0.35 7.5318692918855 37.39486211336474 61.867955326276864 0 0 0
228 76 2 -0.35 5.617040828034031 36.73752337417888 60.734933818983315 0 0 0
229 77 1 0.7 70.77893219375002 94.31338035655833 7.383652675516742 0 0 0
230 77 2 -0.35 69.95940167510742 94.91888757831198 6.829278493742786 0 0 0
231 77 2 -0.35 71.59846271239263 93.70787313480467 7.938026857290698 0 0 0
232 78 1 0.7 8.250517409877162 40.046107805448635 41.93388617519936 0 0 0
233 78 2 -0.35 8.386469998423335 39.538849389919626 40.89957200941481 0 0 0
234 78 2 -0.35 8.114564821330989 40.553366220977644 42.96820034098391 0 0 0
235 79 1 0.7 98.62494657562345 43.47709650326385 75.36093035552695 0 0 0
236 79 2 -0.35 97.71200948653527 42.853279428843756 75.01021946457954 0 0 0
237 79 2 -0.35 99.53788366471164 44.10091357768395 75.71164124647436 0 0 0
238 80 1 0.7 2.756485341282788 119.44913093980827 94.74370535758497 0 0 0
239 80 2 -0.35 3.6915946902138104 118.85601650885806 95.08922782767976 0 0 0
240 80 2 -0.35 1.8213759923517654 120.04224537075848 94.39818288749018 0 0 0
241 81 1 0.7 100.85594493050873 27.666447059841108 46.375734749425085 0 0 0
242 81 2 -0.35 100.11194120318787 28.502234379562797 46.68154189441209 0 0 0
243 81 2 -0.35 101.59994865782959 26.83065974011942 46.06992760443808 0 0 0
244 82 1 0.7 117.7739335873043 106.30180182312701 47.183241295341055 0 0 0
245 82 2 -0.35 118.04933243510605 105.26210412279109 47.617734294761846 0 0 0
246 82 2 -0.35 117.49853473950255 107.34149952346293 46.748748295920265 0 0 0
247 83 1 0.7 60.536450797010424 63.7285453541803 105.86176770816641 0 0 0
248 83 2 -0.35 59.65317313529318 63.77716927195596 105.11139694185721 0 0 0
249 83 2 -0.35 61.41972845872767 63.67992143640463 106.61213847447561 0 0 0
250 84 1 0.7 50.12987115258811 0.9444615483025377 37.96524232074863 0 0 0
251 84 2 -0.35 51.28097756282029 0.8011262682551329 37.96223735550412 0 0 0
252 84 2 -0.35 48.97876474235593 1.0877968283499426 37.96824728599314 0 0 0
253 85 1 0.7 114.82768482213268 42.498805583686945 117.82544502645054 0 0 0
254 85 2 -0.35 115.73366243705212 41.81870577845149 117.57590782244363 0 0 0
255 85 2 -0.35 113.92170720721325 43.1789053889224 118.07498223045745 0 0 0
256 86 1 0.7 63.45455955409192 43.982425622820124 1.627442737774664 0 0 0
257 86 2 -0.35 62.81920889844057 44.29756588245046 2.5453840001240158 0 0 0
258 86 2 -0.35 64.08991020974327 43.667285363189784 0.7095014754253126 0 0 0
259 87 1 0.7 94.43009377877698 21.986139904701215 110.25337831333903 0 0 0
260 87 2 -0.35 94.11665834790382 21.477101075973135 111.24747976767883 0 0 0
261 87 2 -0.35 94.74352920965013 22.495178733429295 109.25927685899923 0 0 0
262 88 1 0.7 3.7293122890076194 114.95164135105519 49.03618718452575 0 0 0
263 88 2 -0.35 3.733963015506158 114.69278432052393 47.90544786510347 0 0 0
264 88 2 -0.35 3.724661562509081 115.21049838158645 50.166926503948034 0 0 0
265 89 1 0.7 50.99801032412705 54.15951760325559 101.41235791659558 0 0 0
266 89 2 -0.35 50.221915664021644 54.65218242338196 100.70485635930703 0 0 0
267 89 2 -0.35 51.77410498423246 53.666852783129215 102.11985947388413 0 0 0
268 90 1 0.7 33.69950422192901 70.16745796081025 71.4659473380381 0 0 0
269 90 2 -0.35 34.45364209616963 69.3917032597168 71.88437380752497 0 0 0
270 90 2 -0.35 32.94536634768839 70.9432126619037 71.04752086855125 0 0 0
271 91 1 0.7 88.77691040634035 22.533199362053164 88.88167802751143 0 0 0
272 91 2 -0.35 87.7708924127241 22.334706979253685 88.33934181215152 0 0 0
273 91 2 -0.35 89.7829283999566 22.731691744852643 89.42401424287134 0 0 0
274 92 1 0.7 95.96260838450986 78.55911845711951 17.503908807460178 0 0 0
275 92 2 -0.35 95.07662869330781 78.26662104717732 18.193173090558197 0 0 0
276 92 2 -0.35 96.84858807571192 78.8516158670617 16.81464452436216 0 0 0
277 93 1 0.7 61.395326983181455 91.06060633056826 113.61059786063181 0 0 0
278 93 2 -0.35 60.236330960622595 91.01341801467915 113.62067171472476 0 0 0
279 93 2 -0.35 62.554323005740315 91.10779464645738 113.60052400653886 0 0 0
280 94 1 0.7 95.31824363885367 22.12083821339572 37.7278525418266 0 0 0
281 94 2 -0.35 95.40769869712582 21.4585409656614 38.675987631459435 0 0 0
282 94 2 -0.35 95.22878858058152 22.783135461130044 36.779717452193765 0 0 0
283 95 1 0.7 19.017670479611343 62.38775082779478 26.52816274684303 0 0 0
284 95 2 -0.35 17.866778709795017 62.24905704296653 26.57073231600994 0 0 0
285 95 2 -0.35 20.16856224942767 62.52644461262304 26.48559317767612 0 0 0
286 96 1 0.7 125.63128619074416 28.42700783704734 108.72071725461667 0 0 0
287 96 2 -0.35 125.01310541051244 28.762133756045536 109.64329144749642 0 0 0
288 96 2 -0.35 126.24946697097589 28.091881918049147 107.79814306173692 0 0 0
289 97 1 0.7 74.49489834210598 114.75643577517776 13.216073412548786 0 0 0
290 97 2 -0.35 74.48690069361547 115.21790346157015 12.151844296223604 0 0 0
291 97 2 -0.35 74.5028959905965 114.29496808878538 14.280302528873968 0 0 0
292 98 1 0.7 34.74584470742655 3.2119977179039263 117.04564481128271 0 0 0
293 98 2 -0.35 34.454394299367564 2.628240777626523 118.0047509025574 0 0 0
294 98 2 -0.35 35.037295115485534 3.7957546581813295 116.08653872000802 0 0 0
295 99 1 0.7 67.15234322834404 18.432638778180184 94.55994487430898 0 0 0
296 99 2 -0.35 66.05504161076583 18.156986977467746 94.3039268186484 0 0 0
297 99 2 -0.35 68.24964484592225 18.708290578892623 94.81596292996956 0 0 0
298 100 1 0.7 127.59350251098793 38.19670217400263 110.97343846223012 0 0 0
299 100 2 -0.35 127.32591199130674 39.313575694901424 110.81037757761374 0 0 0
300 100 2 -0.35 127.86109303066912 37.07982865310384 111.1364993468465 0 0 0
301 101 1 0.7 34.380234701549746 88.80462894654117 98.99870451744587 0 0 0
302 101 2 -0.35 33.50909859845733 88.70926097369734 98.23868685999007 0 0 0
303 101 2 -0.35 35.251370804642164 88.899996919385 99.75872217490168 0 0 0
304 102 1 0.7 94.8268247124864 70.04294275876272 55.53894652497907 0 0 0
305 102 2 -0.35 95.92214514331327 70.424791784739 55.530916881511814 0 0 0
306 102 2 -0.35 93.73150428165953 69.66109373278644 55.54697616844632 0 0 0
307 103 1 0.7 51.27424532299594 24.04114359265247 121.90036170999537 0 0 0
308 103 2 -0.35 50.24814214363269 23.501465072759093 121.86216013324349 0 0 0
309 103 2 -0.35 52.300348502359185 24.58082211254585 121.93856328674724 0 0 0
310 104 1 0.7 16.179259892077773 123.62100615111228 119.45038174383828 0 0 0
311 104 2 -0.35 15.019665034024179 123.64284626654845 119.42886954884564 0 0 0
312 104 2 -0.35 17.338854750131368 123.59916603567612 119.47189393883092 0 0 0
313 105 1 0.7 115.76596868958603 106.43576587226046 92.11701508132602 0 0 0
314 105 2 -0.35 114.8860254901548 107.0818246237632 91.72470390970146 0 0 0
315 105 2 -0.35 116.64591188901727 105.78970712075773 92.50932625295057 0 0 0
316 106 1 0.7 86.07247184639448 128.83432235169892 124.65576500364382 0 0 0
317 106 2 -0.35 84.94244277292864 128.7557485335122 124.40584411972755 0 0 0
318 106 2 -0.35 87.20250091986031 128.91289616988564 124.9056858875601 0 0 0
319 107 1 0.7 117.44241624169165 115.88977411142076 110.43349064841566 0 0 0
320 107 2 -0.35 118.14140875486876 114.97229607112087 110.55695526719288 0 0 0
321 107 2 -0.35 116.74342372851453 116.80725215172066 110.31002602963844 0 0 0
322 108 1 0.7 45.47732792155693 75.0503776072759 105.0964454861807 0 0 0
323 108 2 -0.35 46.628380726087755 75.09470418992727 105.23323947454334 0 0 0
324 108 2 -0.35 44.3262751170261 75.00605102462454 104.95965149781806 0 0 0
325 109 1 0.7 37.55928623888609 41.523816958406854 85.99161994400976 0 0 0
326 109 2 -0.35 36.411378578269286 41.625014424504805 85.8587023922996 0 0 0
327 109 2 -0.35 38.70719389950289 41.422619492308904 86.1245374957199 0 0 0
328 110 1 0.7 67.9563989719173 32.99752101395164 83.73568148516848 0 0 0
329 110 2 -0.35 68.72764174948996 33.76273741404808 84.14216449719414 0 0 0
330 110 2 -0.35 67.18515619434463 32.2323046138552 83.32919847314282 0 0 0
331 111 1 0.7 53.99872122676984 124.70765832062237 81.013394699997 0 0 0
332 111 2 -0.35 53.159869459979575 125.00041638255128 81.7591965708236 0 0 0
333 111 2 -0.35 54.8375729935601 124.41490025869346 80.26759282917038 0 0 0
334 112 1 0.7 119.92472284935636 40.416929132126704 43.927923653520615 0 0 0
335 112 2 -0.35 119.04949258983947 39.702108687762376 44.18984678183268 0 0 0
336 112 2 -0.35 120.79995310887324 41.13174957649103 43.66600052520855 0 0 0
337 113 1 0.7 124.01284472086134 85.28122351648345 69.9236415370012 0 0 0
338 113 2 -0.35 123.02069354991585 85.85798543093864 70.0927029105478 0 0 0
339 113 2 -0.35 125.00499589180683 84.70446160202826 69.7545801634546 0 0 0
340 114 1 0.7 127.24331237899294 123.35115373430364 127.04081244088749 0 0 0
341 114 2 -0.35 126.16065480967242 123.0887844583035 126.71737009578696 0 0 0
342 114 2 -0.35 128.32596994831346 123.61352301030378 127.36425478598802 0 0 0
343 115 1 0.7 94.73469399573966 79.20198639640678 48.78536440859799 0 0 0
344 115 2 -0.35 95.6483188767588 79.3363328423328 48.08333833411798 0 0 0
345 115 2 -0.35 93.82106911472053 79.06763995048077 49.487390483078 0 0 0
346 116 1 0.7 118.81961530634184 28.274453687329988 10.943122955105792 0 0 0
347 116 2 -0.35 119.04869456885031 27.199421341561468 10.572409929923218 0 0 0
348 116 2 -0.35 118.59053604383338 29.349486033098508 11.313835980288367 0 0 0
349 117 1 0.7 124.26750646301896 81.98112395945057 29.75038648580685 0 0 0
350 117 2 -0.35 124.45803042516182 81.86944179435449 28.611603049920625 0 0 0
351 117 2 -0.35 124.0769825008761 82.09280612454666 30.889169921693075 0 0 0
352 118 1 0.7 25.145666955665533 124.22452387056525 8.572692590007883 0 0 0
353 118 2 -0.35 23.991075118764225 124.29731626982267 8.657657034166702 0 0 0
354 118 2 -0.35 26.30025879256684 124.15173147130783 8.487728145849063 0 0 0
355 119 1 0.7 3.244360262455587 11.962931091041739 0.7828471384862659 0 0 0
356 119 2 -0.35 4.241455986242706 12.389547388139649 1.194427814242438 0 0 0
357 119 2 -0.35 2.2472645386684675 11.536314793943829 0.37126646273009356 0 0 0
358 120 1 0.7 47.51185653866821 2.172845396573118 45.2125802043884 0 0 0
359 120 2 -0.35 46.859803152963934 1.2884234863016575 45.58436544726844 0 0 0
360 120 2 -0.35 48.16390992437249 3.0572673068445786 44.840794961508365 0 0 0
361 121 1 0.7 38.63549515578686 87.16708330976175 94.3691871657824 0 0 0
362 121 2 -0.35 37.59015573221501 86.68630003335225 94.51654024736342 0 0 0
363 121 2 -0.35 39.68083457935872 87.64786658617125 94.22183408420139 0 0 0
364 122 1 0.7 36.728695304937986 100.181990092705 122.9074880929233 0 0 0
365 122 2 -0.35 35.77555200091044 99.59174788170026 122.60960896586725 0 0 0
366 122 2 -0.35 37.681838608965535 100.77223230370976 123.20536721997935 0 0 0
367 123 1 0.7 68.95237776187825 28.21304388773304 17.228621129146134 0 0 0
368 123 2 -0.35 68.94338588620245 28.747425435302578 16.19907972260193 0 0 0
369 123 2 -0.35 68.96136963755406 27.678662340163502 18.25816253569034 0 0 0
370 124 1 0.7 107.43531755909108 17.58221564338646 79.49831839618196 0 0 0
371 124 2 -0.35 106.28324003111511 17.679355549264862 79.59255855863266 0 0 0
372 124 2 -0.35 108.58739508706704 17.485075737508055 79.40407823373125 0 0 0
373 125 1 0.7 96.83728462999561 111.84277633607519 107.74188041535295 0 0 0
374 125 2 -0.35 95.95831513315738 112.22246883300531 107.08701689414954 0 0 0
375 125 2 -0.35 97.71625412683383 111.46308383914507 108.39674393655636 0 0 0
376 126 1 0.7 107.78414083681264 39.25504430972741 115.92971358845463 0 0 0
377 126 2 -0.35 107.1400081998716 38.35948827080371 116.28842311881961 0 0 0
378 126 2 -0.35 108.42827347375368 40.15060034865111 115.57100405808966 0 0 0
379 127 1 0.7 2.8962811569200277 2.7974043549026386 28.374992848641707 0 0 0
380 127 2 -0.35 2.5458190265888834 3.7471881362588766 28.941285232376824 0 0 0
381 127 2 -0.35 3.246743287251172 1.8476205735464006 27.80870046490659 0 0 0
382 128 1 0.7 13.304807121076067 98.29328392543518 50.62293478894185 0 0 0
383 128 2 -0.35 12.396368327459646 97.76926853647089 50.127206203543196 0 0 0
384 128 2 -0.35 14.213245914692488 98.81729931439946 51.1186633743405 0 0 0
385 129 1 0.7 110.46499774552184 55.81710898541711 53.55071790532708 0 0 0
386 129 2 -0.35 109.404493785565 56.281915568590534 53.62061920112677 0 0 0
387 129 2 -0.35 111.52550170547869 55.35230240224368 53.480816609527395 0 0 0
388 130 1 0.7 123.51583483224542 39.23602554855684 55.88139459466627 0 0 0
389 130 2 -0.35 122.44599550475469 39.00983007362651 55.49425195883909 0 0 0
390 130 2 -0.35 124.58567415973614 39.46222102348717 56.26853723049345 0 0 0
391 131 1 0.7 95.59895255593534 67.19560760529508 96.57702219429288 0 0 0
392 131 2 -0.35 94.86892493071775 66.40625330616001 97.01242942534923 0 0 0