LAMMPS data file via write_data, version 29 Aug 2024, timestep = 4000000, units = real

1500 atoms
2 atom types
1000 bonds
1 bond types
500 angles
1 angle types

0 129.8 xlo xhi
0 129.8 ylo yhi
0 129.8 zlo zhi

Masses

1 12.0107
2 15.9994

PairIJ Coeffs # lj/cut/coul/long/gpu

1 1 0.053649 2.8 12
1 2 0.0917684 2.925 12
2 2 0.156973 3.05 12

Bond Coeffs # harmonic

1 0 1.16

Angle Coeffs # harmonic

1 0 180

Atoms # full

555 185 2 -0.35 37.41732802940997 15.066357651951614 9.803335364763226 -1 8 -2
553 185 1 0.7 36.7125356875968 15.897988365888763 9.406777537255433 -1 8 -2
554 185 2 -0.35 36.007743345783624 16.72961907982591 9.01021970974764 -1 8 -2
250 84 1 0.7 51.94683474678738 16.081734963614863 15.059151936695727 1 -3 3
252 84 2 -0.35 52.717835386611945 15.794202192938176 14.241543889295432 1 -3 3
251 84 2 -0.35 51.17583410696282 16.36926773429155 15.876759984096022 1 -3 3
723 241 2 -0.35 38.01280492161586 6.268606016513377 1.744801889941011 4 1 -4
721 241 1 0.7 38.29758349943507 7.286114120226617 2.22352772013322 4 1 -4
722 241 2 -0.35 38.58236207725428 8.303622223939856 2.702253550325429 4 1 -4
336 112 2 -0.35 77.41850102646654 1.5865613886720054 6.155865174684683 0 1 0
334 112 1 0.7 77.1100410790133 2.318319102266644 5.310298436093886 0 1 0
335 112 2 -0.35 76.80158113156007 3.0500768158612823 4.464731697503089 0 1 0
514 172 1 0.7 90.9284628246819 13.463637603760372 12.644959076893429 -3 -5 4
515 172 2 -0.35 91.64363920301379 14.05942854651435 13.337169955461498 -3 -5 4
516 172 2 -0.35 90.21328644635001 12.867846661006391 11.95274819832536 -3 -5 4
277 93 1 0.7 105.35693963464054 18.534535428166613 3.123038411472561 0 -1 7
59 20 2 -0.35 101.9390954167956 13.983288163206838 4.438824434414676 -6 -6 -2
58 20 1 0.7 101.5670363269952 13.35233589242025 5.338308322923962 -6 -6 -2
60 20 2 -0.35 101.19497723719479 12.721383621633663 6.237792211433247 -6 -6 -2
977 326 2 -0.35 110.63652742593622 17.326032218110786 5.512849016171445 -1 0 2
279 93 2 -0.35 105.60698177220017 17.413708720631504 2.9592506795705384 0 -1 7
976 326 1 0.7 111.67073582432208 16.945681438289913 5.875266279831485 -1 0 2
978 326 2 -0.35 112.70494422270794 16.565330658469044 6.237683543491525 -1 0 2
1378 460 1 0.7 120.59609962131582 13.498291568154094 18.660417148901 1 -5 1
1380 460 2 -0.35 120.00082178495704 14.352809499137209 18.14949308099452 1 -5 1
1151 384 2 -0.35 7.7545126421875805 26.84283200028011 11.587738913699448 0 0 -2
1150 384 1 0.7 8.32853896999165 26.46890363257075 12.523832579318057 0 0 -2
1152 384 2 -0.35 8.902565297795718 26.09497526486139 13.459926244936666 0 0 -2
122 41 2 -0.35 9.131140482594303 23.27223862015145 9.387186542839103 -5 2 2
121 41 1 0.7 9.251764208273427 22.534050586330583 10.27382533261084 -5 2 2
123 41 2 -0.35 9.37238793395255 21.795862552509714 11.160464122382578 -5 2 2
330 110 2 -0.35 45.36397572749611 22.168471978918227 14.404835906179267 -2 -6 -5
328 110 1 0.7 45.803067312163584 21.94821956117946 15.455686729443084 -2 -6 -5
329 110 2 -0.35 46.24215889683106 21.727967143440694 16.506537552706902 -2 -6 -5
1348 450 1 0.7 64.00541079745976 21.40812571456469 19.05767181491056 1 5 -2
1349 450 2 -0.35 64.25722035080233 22.508595584779417 18.7909172205855 1 5 -2
89 30 2 -0.35 60.74016865320823 18.46668652003655 1.0178104948435878 4 2 1
992 331 2 -0.35 84.63381380817424 29.64372054317535 13.856695324821107 -6 3 -4
991 331 1 0.7 84.31990177283963 30.442570330067735 13.076375997844721 -6 3 -4
993 331 2 -0.35 84.005989737505 31.241420116960118 12.296056670868335 -6 3 -4
278 93 2 -0.35 105.10689749708091 19.65536213570172 3.2868261433745833 0 -1 7
1023 341 2 -0.35 119.04453616707079 27.650155908538743 13.853748688283478 0 -2 4
1021 341 1 0.7 119.42415841921506 28.11513262580991 12.861134161858272 0 -2 4
1022 341 2 -0.35 119.80378067135935 28.58010934308108 11.868519635433065 0 -2 4
628 210 1 0.7 120.10175524823178 20.175428270905076 1.1219958736418747 0 2 7
630 210 2 -0.35 119.14166223531407 19.88348994572078 1.7038836814160279 0 2 7
701 234 2 -0.35 118.69204482627867 24.17148934175519 1.2772415993711141 -2 -5 5
446 149 2 -0.35 14.27935627263908 50.15622511445872 9.687839224222914 3 -7 1
445 149 1 0.7 13.894021832094 50.85047326758938 8.842181568429673 3 -7 1
447 149 2 -0.35 13.50868739154892 51.54472142072004 7.99652391263643 3 -7 1
843 281 2 -0.35 3.664970687605054 50.65320190668851 6.815413151365605 4 -7 -5
841 281 1 0.7 4.43675602638679 49.790409947602136 6.889827035678671 4 -7 -5
842 281 2 -0.35 5.208541365168525 48.92761798851576 6.964240919991737 4 -7 -5
1422 474 2 -0.35 30.729268752656967 43.00251019380859 19.00112361228057 3 6 1
219 73 2 -0.35 31.620122457006275 50.18908799504183 18.513840344986942 2 0 -2
918 306 2 -0.35 55.403325115057484 52.44785085874381 17.65436928850444 -4 -3 -6
916 306 1 0.7 55.66409990839543 53.20083795770408 16.811394237890013 -4 -3 -6
917 306 2 -0.35 55.924874701733366 53.95382505666434 15.968419187275584 -4 -3 -6
456 152 2 -0.35 62.943847242069225 52.4916344792177 10.17829066388591 -4 2 -4
454 152 1 0.7 62.45112183998481 52.39665940439053 9.132441050747675 -4 2 -4
455 152 2 -0.35 61.95839643790038 52.30168432956337 8.086591437609425 -4 2 -4
957 319 2 -0.35 116.31283564572543 38.48682882793863 0.33464728651149267 -5 2 0
956 319 2 -0.35 115.96915496924328 40.56755667572836 1.3015263979027831 -5 2 0
955 319 1 0.7 116.14099530748435 39.527192751833496 0.8180868422071378 -5 2 0
1239 413 2 -0.35 11.45113289289982 69.24967281038313 10.054041028338911 4 -3 0
1237 413 1 0.7 10.623086385328985 69.14982578775168 9.247834135927386 4 -3 0
1238 413 2 -0.35 9.79503987775815 69.04997876512024 8.441627243515862 4 -3 0
474 158 2 -0.35 3.8004213368209347 67.57530198621075 2.7572444821362865 2 7 -4
472 158 1 0.7 4.340329268946602 66.65180572282416 3.2058579865480907 2 7 -4
473 158 2 -0.35 4.88023720107227 65.72830945943757 3.654471490959895 2 7 -4
477 159 2 -0.35 21.908946387954444 65.88003417576184 13.91948935586381 0 0 -3
475 159 1 0.7 22.844743772340827 66.21280293949637 13.320199605193917 0 0 -3
476 159 2 -0.35 23.78054115672721 66.54557170323092 12.720909854524026 0 0 -3
588 196 2 -0.35 51.917267897332906 70.74067125956601 9.130015919416092 4 0 -5
587 196 2 -0.35 50.595091998136496 69.76335796104667 7.493217334335224 4 0 -5
586 196 1 0.7 51.2561799477347 70.25201461030635 8.311616626875658 4 0 -5
162 54 2 -0.35 83.40125129100892 68.24134849825268 9.306984262426932 1 1 0
160 54 1 0.7 84.39377363574451 68.76143450858044 9.60700082373735 1 1 0
161 54 2 -0.35 85.3862959804801 69.28152051890821 9.907017385047768 1 1 0
1364 455 2 -0.35 87.97426744412552 63.494400816508275 4.232534530798496 -2 -3 -2
1363 455 1 0.7 87.195548334814 62.895316315378636 4.849214601256833 -2 -3 -2
1365 455 2 -0.35 86.41682922550248 62.296231814249 5.465894671715168 -2 -3 -2
1275 425 2 -0.35 83.52084769947166 66.27131218882113 4.731613199967091 -9 5 -2
1273 425 1 0.7 82.79619280679786 66.5701454107314 3.876526074577976 -9 5 -2
1274 425 2 -0.35 82.07153791412408 66.86897863264167 3.0214389491888607 -9 5 -2
272 91 2 -0.35 106.29162052035618 68.12992150782617 13.852275009804732 -2 4 2
271 91 1 0.7 105.183563819689 68.3489635994828 13.588019621612718 -2 4 2
273 91 2 -0.35 104.07550711902182 68.56800569113945 13.323764233420702 -2 4 2
860 287 2 -0.35 117.5958592655086 71.23768477603149 13.755632936751873 -5 2 -5
859 287 1 0.7 116.47884369459453 70.93978241282338 13.851186044138375 -5 2 -5
861 287 2 -0.35 115.36182812368047 70.64188004961527 13.946739151524879 -5 2 -5
1456 486 1 0.7 126.85910793116778 70.1929905376023 2.1256140438845765 7 5 0
1457 486 2 -0.35 127.1590381988189 69.53151336132849 1.2211308877027522 7 5 0
1458 486 2 -0.35 126.55917766351666 70.8544677138761 3.030097200066401 7 5 0
1089 363 2 -0.35 37.32913795316447 85.56997645822771 3.2222254751371873 -3 7 2
1087 363 1 0.7 36.215935995007435 85.8778844631301 3.1146426657679465 -3 7 2
1088 363 2 -0.35 35.1027340368504 86.18579246803247 3.0070598563987057 -3 7 2
1242 414 2 -0.35 31.209542118444286 84.09675436088456 13.364410264006487 -1 4 0
1240 414 1 0.7 32.06254494539189 83.31426527756088 13.288931712755495 -1 4 0
1241 414 2 -0.35 32.915547772339494 82.5317761942372 13.213453161504505 -1 4 0
753 251 2 -0.35 31.35619988688239 90.24988700476757 14.877086461993278 -5 4 5
751 251 1 0.7 31.983310383142587 89.2937842567673 14.681638359561456 -5 4 5
752 251 2 -0.35 32.61042087940279 88.33768150876702 14.486190257129634 -5 4 5
1310 437 2 -0.35 35.43245288419119 85.29427576319591 13.2673570517767 -4 -2 -3
1309 437 1 0.7 35.50862098116799 86.45146883842142 13.240850304446914 -4 -2 -3
1311 437 2 -0.35 35.58478907814479 87.60866191364694 13.214343557117129 -4 -2 -3
1064 355 2 -0.35 41.989080590455664 85.65341332890172 5.28753475795634 -2 -4 3
1063 355 1 0.7 41.71345052178983 86.05114837931102 4.233288631607119 -2 -4 3
1065 355 2 -0.35 41.437820453124 86.44888342972031 3.179042505257898 -2 -4 3
205 69 1 0.7 38.191258236233 86.9911783804391 1.1143718190252379 -7 3 -8
206 69 2 -0.35 38.15563451709182 87.9161649757162 1.8134646234447827 -7 3 -8
207 69 2 -0.35 38.22688195537417 86.06619178516198 0.41527901460569316 -7 3 -8
812 271 2 -0.35 63.09710371959224 89.30064253466053 15.123440259225868 -7 2 1
811 271 1 0.7 62.86084605785336 88.29025260925948 14.604889860597247 -7 2 1
813 271 2 -0.35 62.624588396114476 87.27986268385845 14.086339461968626 -7 2 1
1197 399 2 -0.35 68.04183867141639 89.64664367921816 15.662612051480982 11 -3 0
1196 399 2 -0.35 68.91359545995066 87.94042730507198 14.354458472486261 11 -3 0
1195 399 1 0.7 68.47771706568352 88.79353549214507 15.008535261983623 11 -3 0
129 43 2 -0.35 86.86838722199542 88.86723997374408 0.9052485069725601 8 -2 4
127 43 1 0.7 86.16390050312859 88.69280952812457 1.8101642392817376 8 -2 4
128 43 2 -0.35 85.45941378426174 88.51837908250505 2.7150799715909155 8 -2 4
1094 365 2 -0.35 16.134264437828975 106.98002128937898 128.5267759074776 1 5 -3
1093 365 1 0.7 17.161500996618177 107.44067256955866 128.80639252064 1 5 -3
1095 365 2 -0.35 18.18873755540738 107.90132384973833 129.0860091338024 1 5 -3
364 122 1 0.7 3.0396056614923874 101.95112585443523 18.0754379428539 -5 2 -3
365 122 2 -0.35 3.8708260176517486 102.40374778438519 17.404762083713592 -5 2 -3
362 121 2 -0.35 23.81220319421552 106.9602712515657 3.715746543519281 2 -5 3
361 121 1 0.7 24.143274340981183 106.05302257128051 3.0731800271964715 2 -5 3
363 121 2 -0.35 24.474345487746845 105.14577389099532 2.430613510873662 2 -5 3
537 179 2 -0.35 49.77590335203042 99.44207748265389 3.4961464030192904 -3 7 -4
535 179 1 0.7 49.135431292066286 99.71963397032688 4.422622488277396 -3 7 -4
536 179 2 -0.35 48.494959232102154 99.99719045799988 5.3490985735355014 -3 7 -4
949 317 1 0.7 71.2807555899951 99.92533574239364 7.198927672380566 1 8 -2
950 317 2 -0.35 71.06281233652801 99.0493889356005 7.927500201326941 1 8 -2
951 317 2 -0.35 71.4986988434622 100.80128254918677 6.4703551434341895 1 8 -2
824 275 2 -0.35 81.36964629156905 101.5114828559257 6.155470485697133 -1 -2 -5
823 275 1 0.7 81.03118334637185 101.85203834344163 7.211436770504776 -1 -2 -5
825 275 2 -0.35 80.69272040117464 102.19259383095756 8.26740305531242 -1 -2 -5
1454 485 2 -0.35 105.80252088991288 109.58313949427786 11.062199202715064 -4 1 1
1453 485 1 0.7 104.97491464301343 108.94937889507015 11.571134761488459 -4 1 1
1455 485 2 -0.35 104.14730839611398 108.31561829586245 12.080070320261854 -4 1 1
466 156 1 0.7 101.51775213695026 111.29157529102734 12.691673722107112 -1 2 0
468 156 2 -0.35 100.35988919889947 111.33262517532377 12.748842976842248 -1 2 0
467 156 2 -0.35 102.67561507500105 111.25052540673092 12.634504467371977 -1 2 0
735 245 2 -0.35 115.92948073260425 110.76269334862954 0.5296960480141674 -8 -3 0
733 245 1 0.7 114.8966935476763 110.72791905423432 0.0026843032697433477 -8 -3 0
75 25 2 -0.35 116.99102795335209 104.49953224073892 5.15104608330616 -2 0 4
73 25 1 0.7 117.58507068371031 104.29840729907433 4.175206961140084 -2 0 4
74 25 2 -0.35 118.17911341406854 104.09728235740974 3.1993678389740072 -2 0 4
756 252 2 -0.35 19.38259333828904 116.74013302493307 7.992855664279913 -4 -5 6
754 252 1 0.7 18.830164068722713 117.75342513682922 7.875975391797491 -4 -5 6
755 252 2 -0.35 18.277734799156384 118.76671724872537 7.7590951193150675 -4 -5 6
311 104 2 -0.35 34.6893703103803 125.5630474935632 8.014086672079797 7 -3 -8
310 104 1 0.7 33.922157806358946 124.69472720698916 8.068903217007474 7 -3 -8
312 104 2 -0.35 33.15494530233759 123.82640692041512 8.12371976193515 7 -3 -8
1171 391 1 0.7 42.4124636491634 127.87883500322111 0.20674567644700664 0 -1 6
1172 391 2 -0.35 41.965631012302374 127.66871366864355 1.2564073454582199 0 -1 6
1308 436 2 -0.35 63.57004111601723 127.87341969034108 10.310618057909124 -5 0 4
1306 436 1 0.7 63.15113547429741 127.02308886502762 9.64199592930617 -5 0 4
1307 436 2 -0.35 62.73222983257759 126.17275803971414 8.973373800703213 -5 0 4
513 171 2 -0.35 88.05669843404999 113.96264873365635 11.369731571469659 5 -2 4
511 171 1 0.7 87.3036540510047 113.21003452744503 11.830270401290527 5 -2 4
512 171 2 -0.35 86.55060966795942 112.45742032123371 12.290809231111394 5 -2 4
1058 353 2 -0.35 110.44281095243191 0.5127997554258543 12.241935590817526 3 -1 -1
1057 353 1 0.7 111.36295228737656 129.61098718185175 12.161941620426756 3 -2 -1
1059 353 2 -0.35 112.28309362232119 128.90917460827765 12.081947650035985 3 -2 -1
193 65 1 0.7 18.005488645620442 14.885568012076778 19.16073777073531 -7 3 1
195 65 2 -0.35 19.038259647152653 15.400894860703401 19.27659241017261 -7 3 1
194 65 2 -0.35 16.972717644088235 14.370241163450155 19.044883131298004 -7 3 1
1177 393 1 0.7 28.31247746996078 16.61887317542056 36.45539440370269 -4 2 3
1179 393 2 -0.35 28.458506560792856 15.78811582693205 35.65907930742384 -4 2 3
284 95 2 -0.35 79.73520418299782 10.835212668602153 25.705642040423744 2 -2 -2
283 95 1 0.7 78.9638315694233 10.745338661910887 24.84395360836223 2 -2 -2
285 95 2 -0.35 78.19245895584879 10.655464655219621 23.98226517630072 2 -2 -2
1236 412 2 -0.35 97.62142757749986 13.672254079293213 21.416045498348552 -3 -4 0
1234 412 1 0.7 97.91622521832029 12.715571032740531 20.829997804551482 -3 -4 0
1235 412 2 -0.35 98.21102285914073 11.758887986187851 20.243950110754415 -3 -4 0
545 182 2 -0.35 106.58006905604958 11.695803655754649 33.18964237588299 3 -2 8
546 182 2 -0.35 105.80671248394029 9.749341913285548 34.18744310622696 3 -2 8
544 182 1 0.7 106.19339076999493 10.722572784520098 33.688542741054974 3 -2 8
1379 460 2 -0.35 121.19137745767459 12.643773637170982 19.171341216807484 1 -5 1
1419 473 2 -0.35 128.75258549042306 9.548975175879718 22.06016072055297 -7 3 1
1417 473 1 0.7 129.0653720387604 8.468673222202597 21.776061681381464 -7 3 1
1418 473 2 -0.35 129.37815858709772 7.388371268525474 21.491962642209952 -7 3 1
471 157 2 -0.35 8.467364598531237 24.902999175887548 31.04580401682987 3 -1 -2
469 157 1 0.7 8.440663326479784 24.69828208448262 32.187284614368615 3 -1 -2
470 157 2 -0.35 8.413962054428332 24.493564993077694 33.32876521190736 3 -1 -2
1230 410 2 -0.35 20.254712973635463 29.50117074427056 27.996828303299576 0 2 6
1229 410 2 -0.35 20.195284626762998 27.568785687208326 29.279308814978176 0 2 6
1228 410 1 0.7 20.22499880019923 28.534978215739443 28.638068559138876 0 2 6
708 236 2 -0.35 31.871871068309627 31.938019656684673 32.2153193120072 0 -2 1
706 236 1 0.7 30.940607475201716 32.58421330578491 32.461859142491676 0 -2 1
707 236 2 -0.35 30.009343882093805 33.23040695488514 32.70839897297615 0 -2 1
863 288 2 -0.35 28.96064436013328 36.1454896460596 35.29144048772662 2 2 -2
862 288 1 0.7 27.985762239341454 35.778826586101594 35.80209012399603 2 2 -2
864 288 2 -0.35 27.01088011854963 35.412163526143594 36.312739760265444 2 2 -2
1350 450 2 -0.35 63.753601244117185 20.30765584434996 19.32442640923562 1 5 -2
360 120 2 -0.35 67.06197207552786 38.3493675169057 21.679458620450948 -6 -2 4
359 120 2 -0.35 68.35159266153917 37.48401064151949 23.4029539707082 -6 -2 4
358 120 1 0.7 67.70678236853351 37.916689079212595 22.541206295579574 -6 -2 4
267 89 2 -0.35 71.82231414733407 26.689727341015853 33.9937040049285 -4 4 0
265 89 1 0.7 71.76165627029869 27.503081421058837 33.16885507183119 -4 4 0
266 89 2 -0.35 71.70099839326332 28.316435501101818 32.34400613873387 -4 4 0
1329 443 2 -0.35 56.7716687173163 25.42591772859425 33.14095413524677 -2 4 7
1327 443 1 0.7 57.78877394596322 25.943376314292436 32.93278697658307 -2 4 7
1201 401 1 0.7 74.24070348619131 37.69333907291346 25.034347472491277 -1 2 -2
1328 443 2 -0.35 58.80587917461015 26.460834899990623 32.72461981791936 -2 4 7
1040 347 2 -0.35 84.73918333739637 21.39405711908945 36.65830901818238 0 3 7
1041 347 2 -0.35 82.48610468262031 20.876715980777252 36.854254730046726 0 3 7
1182 394 2 -0.35 77.17993081569873 35.14851130613389 33.754856850596035 -3 -3 -1
1180 394 1 0.7 77.77956330542635 34.249984500266706 34.17757479012523 -3 -3 -1
1181 394 2 -0.35 78.37919579515398 33.35145769439952 34.60029272965442 -3 -3 -1
1039 347 1 0.7 83.61264401000834 21.13538654993335 36.756281874114556 0 3 7
1203 401 2 -0.35 74.91711643162974 37.467154828494174 24.119521688630634 -1 2 -2
865 289 1 0.7 92.40918914508403 37.148039712132906 27.068642819154555 5 -4 0
866 289 2 -0.35 92.49513838195381 36.93922471834022 25.93083394810045 5 -4 0
867 289 2 -0.35 92.32323990821425 37.35685470592559 28.206451690208656 5 -4 0
575 192 2 -0.35 108.51384920101009 27.222333886749 33.91027045739099 0 -1 6
574 192 1 0.7 107.64106878531211 27.06490118948601 34.65797982058333 0 -1 6
576 192 2 -0.35 106.76828836961414 26.90746849222302 35.40568918377566 0 -1 6
494 165 2 -0.35 103.72014454753658 33.77705120896128 26.051096188176402 -1 2 -1
493 165 1 0.7 104.82395489930164 33.98262659485561 26.342543384164546 -1 2 -1
495 165 2 -0.35 105.92776525106672 34.188201980749945 26.63399058015269 -1 2 -1
380 127 2 -0.35 109.31828581558155 24.654854974508364 18.60130665177906 0 0 3
379 127 1 0.7 108.9607660326587 25.258948253542595 19.52480592900735 0 0 3
381 127 2 -0.35 108.60324624973585 25.863041532576826 20.448305206235645 0 0 3
143 48 2 -0.35 116.50988020353608 19.90000107151262 29.734887597707605 -2 2 2
144 48 2 -0.35 117.34065239120412 20.141977986378414 31.88748248408689 -2 2 2
142 48 1 0.7 116.9252662973701 20.020989528945517 30.811185040897247 -2 2 2
834 278 2 -0.35 12.962761401605414 46.96592472203836 38.96963978976893 4 -3 5
1069 357 1 0.7 7.925661483454158 41.48208754483989 36.90425581299483 4 -8 3
1071 357 2 -0.35 7.775137884840742 40.89294162937432 37.89210688301958 4 -8 3
218 73 2 -0.35 29.542637704725813 51.1798671598689 18.805068349458498 2 0 -2
1421 474 2 -0.35 32.47949094784137 43.14408421518653 20.517395047069687 3 6 1
1420 474 1 0.7 31.60437985024917 43.073297204497564 19.759259329675128 3 6 1
217 73 1 0.7 30.581380080866044 50.68447757745537 18.65945434722272 2 0 -2
387 129 2 -0.35 24.065989204328687 38.08731414568069 33.881578446112776 1 2 1
386 129 2 -0.35 23.524441212352915 39.92687404947632 32.57576638738248 1 2 1
385 129 1 0.7 23.795215208340803 39.0070940975785 33.22867241674763 1 2 1
614 205 2 -0.35 53.14667252534268 44.33003770698737 38.526858106483644 -2 0 3
613 205 1 0.7 53.04171994413134 45.24275884185097 37.818673747950854 -2 0 3
615 205 2 -0.35 52.93676736291999 46.155479976714574 37.11048938941806 -2 0 3
1202 401 2 -0.35 73.56429054075288 37.91952331733275 25.94917325635192 -1 2 -2
803 268 2 -0.35 83.24461354809458 38.54374225548516 33.09873799617355 -2 5 -5
802 268 1 0.7 84.21869724123977 38.72970409283567 33.70055121786086 -2 5 -5
804 268 2 -0.35 85.19278093438494 38.91566593018619 34.30236443954817 -2 5 -5
899 300 2 -0.35 107.50191209738213 54.5544397372951 19.8534988836037 0 2 -5
898 300 1 0.7 106.55625249864329 54.83951549140318 20.461824238764727 0 2 -5
1434 478 2 -0.35 115.7215329885279 51.91264308578344 26.59005892977125 5 3 2
1432 478 1 0.7 115.44299764964498 52.78921387574688 25.88320553961437 5 3 2
1433 478 2 -0.35 115.16446231076206 53.66578466571032 25.17635214945749 5 3 2
674 225 2 -0.35 18.01288419413486 62.90945007429972 23.787334280568345 5 1 -6
1485 495 2 -0.35 7.53307366978513 70.68476126221435 22.817242000506873 -6 1 -2
1483 495 1 0.7 6.690890508602956 69.93742074910632 23.09618586670462 -6 1 -2
1484 495 2 -0.35 5.848707347420781 69.19008023599831 23.37512973290237 -6 1 -2
39 13 2 -0.35 3.2114114361587216 63.53150002970242 25.59500328754042 0 1 0
37 13 1 0.7 3.3204815682508273 63.14566659287663 26.68350513196404 0 1 0
38 13 2 -0.35 3.429551700342933 62.759833156050846 27.772006976387665 0 1 0
673 225 1 0.7 19.023296162148412 63.4598689786702 23.93466616647618 5 1 -6
675 225 2 -0.35 20.033708130161965 64.01028788304069 24.081998052384016 5 1 -6
246 82 2 -0.35 26.25872176519433 75.50788302465497 32.43836792286435 0 9 3
244 82 1 0.7 26.261844779263914 74.58595756016568 33.1423875850267 0 9 3
245 82 2 -0.35 26.264967793333497 73.66403209567639 33.84640724718904 0 9 3
791 264 2 -0.35 43.53810745486432 71.80891121318133 28.52846950081873 1 -1 1
792 264 2 -0.35 42.630551812887695 70.16838788861041 29.89500745428192 1 -1 1
790 264 1 0.7 43.084329633876 70.98864955089587 29.211738477550323 1 -1 1
235 79 1 0.7 63.554896550716094 68.15114321752667 34.33818781641811 -3 -4 0
237 79 2 -0.35 63.253615816671456 67.05302341668762 34.559463260825325 -3 -4 0
236 79 2 -0.35 63.856177284760726 69.24926301836572 34.11691237201091 -3 -4 0
10 4 1 0.7 66.48716199601026 65.49960192098374 38.38742918178153 -5 -1 1
11 4 2 -0.35 65.56040914591114 66.18772369148044 38.50239693292106 -5 -1 1
12 4 2 -0.35 67.41391484610936 64.81148015048703 38.27246143064199 -5 -1 1
1361 454 2 -0.35 88.20285508681555 58.78347593832156 30.483197399416802 -3 7 4
1360 454 1 0.7 87.39714215591671 58.857341755768566 29.651951037623668 -3 7 4
1362 454 2 -0.35 86.59142922501786 58.93120757321557 28.820704675830534 -3 7 4
192 64 2 -0.35 77.46205342960293 71.01978796951461 32.45687869761437 3 -7 3
190 64 1 0.7 76.46650013983839 70.76060263024894 31.92087813124297 3 -7 3
191 64 2 -0.35 75.47094685007384 70.50141729098327 31.38487756487157 3 -7 3
900 300 2 -0.35 105.61059289990445 55.12459124551126 21.070149593925755 0 2 -5
821 274 2 -0.35 119.16042638824875 67.3406002968801 26.1181813523066 2 -1 0
820 274 1 0.7 118.91587148076991 67.50473484785923 27.240167424592283 2 -1 0
822 274 2 -0.35 118.67131657329107 67.66886939883837 28.36215349687797 2 -1 0
635 212 2 -0.35 17.7028041708012 89.36980106650178 33.85568731105976 5 1 1
634 212 1 0.7 18.48110583585757 90.18603750918403 33.58438565642623 5 1 1
636 212 2 -0.35 19.259407500913937 91.00227395186629 33.31308400179269 5 1 1
1319 440 2 -0.35 34.626906379313915 78.94771491774368 25.624278462295997 1 6 -3
1318 440 1 0.7 34.10301182515296 78.28722131516605 24.827483195571467 1 6 -3
1320 440 2 -0.35 33.57911727099201 77.62672771258842 24.03068792884694 1 6 -3
1412 471 2 -0.35 17.912008343196533 93.90466830366144 25.404880238106433 0 -3 -2
1411 471 1 0.7 18.18969332213635 93.95808506828655 26.529885883303542 0 -3 -2
1413 471 2 -0.35 18.467378301076167 94.01150183291168 27.654891528500652 0 -3 -2
1103 368 2 -0.35 47.02796360886166 81.47676333373083 36.52702398025303 -2 3 -3
1102 368 1 0.7 47.81498682816072 82.32452969957524 36.440498601165764 -2 3 -3
1104 368 2 -0.35 48.60201004745977 83.17229606541966 36.35397322207851 -2 3 -3
720 240 2 -0.35 62.70994901088549 73.75046385786132 32.00842303842403 0 0 0
718 240 1 0.7 62.284721955410404 74.74898228548207 32.417987320304576 0 0 0
719 240 2 -0.35 61.85949489993532 75.74750071310282 32.827551602185125 0 0 0
342 114 2 -0.35 123.25427340919701 83.21450629205063 23.211802839029172 -2 2 0
716 239 2 -0.35 121.91060243833745 76.11799373965222 28.435029794936504 -3 1 -1
715 239 1 0.7 122.72657318385679 75.92586377232917 29.236826413858008 -3 1 -1
717 239 2 -0.35 123.54254392937614 75.7337338050061 30.03862303277951 -3 1 -1
341 114 2 -0.35 122.49815361115336 85.3605918473347 22.75903397923028 -2 2 0
340 114 1 0.7 122.87621351017518 84.28754906969266 22.98541840912973 -2 2 0
366 122 2 -0.35 2.2083853053330262 101.49850392448529 18.746113801994206 -5 2 -3
1443 481 2 -0.35 129.78942926068967 99.0015477093804 20.11047320491334 1 8 2
856 286 1 0.7 12.994739334596561 110.56236496355604 23.079430192141512 2 0 5
857 286 2 -0.35 12.325331115991222 111.18779013083463 22.367857288639964 2 0 5
858 286 2 -0.35 13.664147553201902 109.93693979627746 23.791003095643056 2 0 5
925 309 1 0.7 31.466968020192763 104.18762409375384 35.60694125331948 -5 2 -1
926 309 2 -0.35 30.396418937244725 104.59775414211816 35.783910189655906 -5 2 -1
927 309 2 -0.35 32.5375171031408 103.7774940453895 35.429972316983054 -5 2 -1
1062 354 2 -0.35 37.17304498921158 106.76857203519815 29.7936909738984 -4 1 2
1060 354 1 0.7 36.600767172234654 106.71286076368585 28.78622169177452 -4 1 2
1061 354 2 -0.35 36.028489355257726 106.65714949217355 27.778752409650643 -4 1 2
1482 494 2 -0.35 54.953693820621794 100.33612225524749 27.932081796780146 0 2 -4
1480 494 1 0.7 54.55022577536954 99.57082719443922 28.70482820172854 0 2 -4
1481 494 2 -0.35 54.146757730117294 98.80553213363093 29.47757460667693 0 2 -4
348 116 2 -0.35 58.813257573189006 102.25140116759205 27.24541955387319 -1 4 -2
347 116 2 -0.35 57.974409774456596 101.02424728852615 29.02666286337677 -1 4 -2
346 116 1 0.7 58.3938336738228 101.6378242280591 28.13604120862498 -1 4 -2
1284 428 2 -0.35 59.7357965798511 108.95740830558388 21.409540809835768 2 2 4
1282 428 1 0.7 60.72527153063021 108.99119004464318 22.01402250177248 2 2 4
1283 428 2 -0.35 61.71474648140932 109.02497178370247 22.618504193709192 2 2 4
269 90 2 -0.35 60.014729244746036 112.4466536481669 28.856998043804886 -3 3 1
29 10 2 -0.35 82.73764949902612 109.72634989148135 32.408274393146705 -1 -7 2
28 10 1 0.7 83.33766792614423 108.74693488918489 32.57052155150886 -1 -7 2
30 10 2 -0.35 83.93768635326234 107.76751988688841 32.73276870987102 -1 -7 2
520 174 1 0.7 90.85972239441806 113.58371472622622 25.0807760106305 1 0 -3
521 174 2 -0.35 89.83507502760602 114.053177356393 25.355189225623995 1 0 -3
1325 442 2 -0.35 98.89426428046595 112.78970164294583 37.08641480267177 -3 -3 1
1442 481 2 -0.35 128.95023827757709 101.16143626521261 20.224665675090538 1 8 2
1441 481 1 0.7 129.36983376913338 100.08149198729652 20.16756944000194 1 8 2
1271 424 2 -0.35 119.7642659566894 107.82155488748147 20.482375765600946 4 -2 4
1270 424 1 0.7 119.40106074152726 108.63401117754407 19.738334941172152 4 -2 4
1272 424 2 -0.35 119.03785552636512 109.44646746760668 18.99429411674336 4 -2 4
1377 459 2 -0.35 23.595912226799268 114.87757323817624 25.758566088596545 0 -1 0
1375 459 1 0.7 24.754032580332844 114.812808917368 25.745805622983468 0 -1 0
1376 459 2 -0.35 25.912152933866423 114.74804459655978 25.733045157370395 0 -1 0
711 237 2 -0.35 26.82721577880417 123.89917898486082 22.15960544060907 -7 4 -4
709 237 1 0.7 25.96900449960864 124.04823672766418 22.92567018302432 -7 4 -4
710 237 2 -0.35 25.11079322041311 124.19729447046753 23.691734925439565 -7 4 -4
345 115 2 -0.35 60.46353376904085 114.03311676477017 20.97898975593289 -2 1 -1
343 115 1 0.7 60.95300543592918 114.28822361897005 21.99925343765972 -2 1 -1
344 115 2 -0.35 61.442477102817506 114.54333047316993 23.019517119386553 -2 1 -1
1169 390 2 -0.35 60.28360674862731 122.57595929583621 31.088987529227246 1 0 -1
1168 390 1 0.7 60.83926217289654 122.16040656558229 32.018591196312656 1 0 -1
884 295 2 -0.35 62.285135110420384 126.29842854818277 35.223309871221865 -3 2 -3
883 295 1 0.7 62.675052239330185 125.65906661040259 36.10918850009914 -3 2 -3
885 295 2 -0.35 63.064969368239986 125.01970467262241 36.99506712897641 -3 2 -3
837 279 2 -0.35 64.75288443751252 120.12080253106419 30.93913518553445 -6 2 2
835 279 1 0.7 65.7346341874244 120.69644169959669 31.163650165434582 -6 2 2
836 279 2 -0.35 66.7163839373363 121.27208086812918 31.38816514533471 -6 2 2
270 90 2 -0.35 61.993678474075764 112.52044470454031 27.648397684821774 -3 3 1
268 90 1 0.7 61.0042038594109 112.4835491763536 28.25269786431333 -3 3 1
1170 390 2 -0.35 61.39491759716577 121.74485383532837 32.948194863398065 1 0 -1
522 174 2 -0.35 91.88436976123009 113.11425209605946 24.80636279563701 1 0 -3
20 7 2 -0.35 81.64725500184397 123.61138124103218 36.72902629211434 -2 0 3
19 7 1 0.7 82.44542730064617 123.06552237442855 37.369775134619886 -2 0 3
338 113 2 -0.35 104.80961196805283 118.88053752679374 24.575757750590927 -3 6 0
339 113 2 -0.35 107.07706877360387 119.11882079395582 25.005013757599595 -3 6 0
337 113 1 0.7 105.94334037082835 118.99967916037478 24.79038575409526 -3 6 0
1324 442 1 0.7 99.50840256741479 113.5914078609506 36.51571233683126 -3 -3 1
1326 442 2 -0.35 100.12254085436363 114.39311407895535 35.94500987099075 -3 -3 1
830 277 2 -0.35 119.12697412838787 115.05842848055588 25.50162330292618 4 -1 0
829 277 1 0.7 119.37765610859077 114.45388475226548 26.45937349237247 4 -1 0
831 277 2 -0.35 119.62833808879367 113.8493410239751 27.417123681818758 4 -1 0
509 170 2 -0.35 15.971008024340588 10.884733391311366 41.439032409330274 -1 -6 -2
508 170 1 0.7 16.056379308850964 10.358540455393387 40.40877383112256 -1 -6 -2
510 170 2 -0.35 16.141750593361344 9.832347519475407 39.37851525291485 -1 -6 -2
352 118 1 0.7 11.527367738381004 9.864485071264355 50.85786588229359 4 0 -1
353 118 2 -0.35 11.714267973445354 10.976244624925364 50.58462789632067 4 0 -1
354 118 2 -0.35 11.340467503316654 8.752725517603345 51.13110386826651 4 0 -1
323 108 2 -0.35 30.712445778215752 5.338939853468353 40.748122416928176 4 3 -4
322 108 1 0.7 30.655548580718094 6.374730301157782 40.22898769703962 4 3 -4
324 108 2 -0.35 30.598651383220435 7.410520748847211 39.709852977151066 4 3 -4
1178 393 2 -0.35 28.166448379128706 17.44963052390907 37.25170949998154 -4 2 3
47 16 2 -0.35 28.16395816276544 17.60509836095072 52.58767240549243 -7 2 -3
1211 404 2 -0.35 48.96612471313598 9.501150161385706 44.85514648130365 2 0 -1
1210 404 1 0.7 49.481132238963184 10.535308731381635 44.75082342323123 2 0 -1