LAMMPS (29 Aug 2024 - Update 1)
  using 1 OpenMP thread(s) per MPI task
package gpu 1 gpuID 0
# GCMC for CO2 molecular fluid, rigid/small/nvt dynamics
# Rigid CO2 TraPPE model
# [Potoff and J.I. Siepmann, Vapor-liquid equilibria of
# mixtures containing alkanes, carbon dioxide and
# nitrogen AIChE J., 47,1676-1682 (2001)].

# global model settings

units           real
atom_style      full
boundary        p p p
pair_style      lj/cut/coul/long  12
pair_modify     mix arithmetic shift yes
kspace_style    pppm 1.0e-4
bond_style      harmonic
angle_style     harmonic
neigh_modify    one 4000

# box, start molecules on simple cubic lattice
region          mbox block 0 ${lbox} 0 ${lbox} 0 ${lbox} units box
region          mbox block 0 129.8 0 ${lbox} 0 ${lbox} units box
region          mbox block 0 129.8 0 129.8 0 ${lbox} units box
region          mbox block 0 129.8 0 129.8 0 129.8 units box
create_box      2 mbox                                       bond/types 1                                angle/types 1                               extra/bond/per/atom 2                       extra/angle/per/atom 1                      extra/special/per/atom 2
Created orthogonal box = (0 0 0) to (129.8 129.8 129.8)
  1 by 1 by 1 MPI processor grid
molecule        co2mol ../CO2.txt
Read molecule template co2mol:
# CO2 molecule file. TraPPE model.
  1 molecules
  0 fragments
  3 atoms with max type 2
  2 bonds with max type 1
  1 angles with max type 1
  0 dihedrals with max type 0
  0 impropers with max type 0
create_atoms   	0 random ${nmols} 34578 mbox mol co2mol 464563 overlap 1.2
create_atoms   	0 random 500 34578 mbox mol co2mol 464563 overlap 1.2
Created 1500 atoms
  using lattice units in orthogonal box = (0 0 0) to (129.8 129.8 129.8)
  create_atoms CPU = 0.008 seconds

# rigid CO2 TraPPE model

pair_coeff      1   1  0.053649   2.800
pair_coeff      2   2  0.156973   3.050
bond_coeff      1       0       1.16
angle_coeff     1       0       180

# masses

mass 1 12.0107
mass 2 15.9994

write_data init_conf.data  pair ij
System init for write_data ...
PPPM initialization ...
  using 12-bit tables for long-range coulomb (src/kspace.cpp:342)
  G vector (1/distance) = 0.16409079
  grid = 27 27 27
  stencil order = 5
  estimated absolute RMS force accuracy = 0.036022981
  estimated relative force accuracy = 0.00010848214
  using double precision FFTW3
  3d grid and FFT values/proc = 32768 19683
Generated 1 of 1 mixed pair_coeff terms from arithmetic mixing rule

# MD settings

group           co2 type 1 2
1500 atoms in group co2
velocity       	all create 300 54654
timestep        0.25

# rigid constraints with thermostat
fix             myrigidnvt co2 rigid/nvt molecule temp 300 300 $(100*dt)
fix             myrigidnvt co2 rigid/nvt molecule temp 300 300 25
  500 rigid bodies with 1500 atoms

thermo 1000
thermo_style custom step temp density press ke pe etotal


variable    mvol equal vol
variable    mden equal density
variable	mtmp equal temp
variable    mpre equal press

fix mydat all ave/time 1 4000 4000 v_mtmp v_mden v_mpre file statistics.dat ## every 1ps

run 4000000 ## 1ns

CITE-CITE-CITE-CITE-CITE-CITE-CITE-CITE-CITE-CITE-CITE-CITE-CITE

Your simulation uses code contributions which should be cited:

- GPU package (short-range, long-range and three-body potentials): doi:10.1016/j.cpc.2010.12.021, doi:10.1016/j.cpc.2011.10.012, doi:10.1016/j.cpc.2013.08.002, doi:10.1016/j.commatsci.2014.10.068, doi:10.1016/j.cpc.2016.10.020, doi:10.3233/APC200086

@Article{Brown11,
 author = {W. M. Brown and P. Wang and S. J. Plimpton and A. N. Tharrington},
 title = {Implementing Molecular Dynamics on Hybrid High Performance Computers---Short Range Forces},
 journal = {Comput.\ Phys.\ Commun.},
 year =    2011,
 volume =  182,
 pages =   {898--911},
 doi =     {10.1016/j.cpc.2010.12.021}
}

@Article{Brown12,
 author = {W. M. Brown and A. Kohlmeyer and S. J. Plimpton and A. N. Tharrington},
 title = {Implementing Molecular Dynamics on Hybrid High Performance Computers - Particle-Particle Particle-Mesh},
 journal = {Comput.\ Phys.\ Commun.},
 year =    2012,
 volume =  183,
 doi =     {10.1016/j.cpc.2011.10.012},
 pages =   {449--459}
}

@Article{Brown13,
 author = {W. M. Brown and Y. Masako},
 title = {Implementing Molecular Dynamics on Hybrid High Performance Computers---Three-Body Potentials},
 journal = {Comput.\ Phys.\ Commun.},
 year =    2013,
 volume =  184,
 pages =   {2785--2793},
 doi =     {10.1016/j.cpc.2013.08.002},
}

@Article{Trung15,
 author = {T. D. Nguyen and S. J. Plimpton},
 title = {Accelerating Dissipative Particle Dynamics Simulations for Soft Matter Systems},
 journal = {Comput.\ Mater.\ Sci.},
 year =    2015,
 doi =     {10.1016/j.commatsci.2014.10.068},
 volume =  100,
 pages =   {173--180}
}

@Article{Trung17,
 author = {T. D. Nguyen},
 title = {{GPU}-Accelerated {T}ersoff Potentials for Massively Parallel
    Molecular Dynamics Simulations},
 journal = {Comput.\ Phys.\ Commun.},
 year =    2017,
 doi =     {10.1016/j.cpc.2016.10.020},
 volume =  212,
 pages =   {113--122}
}

@inproceedings{Nikolskiy19,
 author = {V. Nikolskiy and V. Stegailov},
 title = {{GPU} Acceleration of Four-Site Water Models in {LAMMPS}},
 booktitle = {Proceedings of the International Conference on Parallel
    Computing (ParCo 2019), Prague, Czech Republic},
 doi =     {10.3233/APC200086},
 year =    2019
}

CITE-CITE-CITE-CITE-CITE-CITE-CITE-CITE-CITE-CITE-CITE-CITE-CITE

PPPM initialization ...
  using 12-bit tables for long-range coulomb (src/kspace.cpp:342)
  G vector (1/distance) = 0.16409079
  grid = 27 27 27
  stencil order = 5
  estimated absolute RMS force accuracy = 0.036022981
  estimated relative force accuracy = 0.00010848214
  using double precision FFTW3
  3d grid and FFT values/proc = 32768 19683
Generated 1 of 1 mixed pair_coeff terms from arithmetic mixing rule
Per MPI rank memory allocation (min/avg/max) = 10.39 | 10.39 | 10.39 Mbytes
   Step          Temp         Density         Press          KinEng         PotEng         TotEng    
         0   307.41471      0.016708652   -195.29592      762.70438      47504.685      48267.389    
      1000   306.07152      0.016708652    12.473932      759.37189     -20.06527       739.30662    
      2000   316.17031      0.016708652    17.726945      784.42726     -21.372803      763.05446    
      3000   304.42207      0.016708652    13.98576       755.27956     -33.148065      722.13149    
      4000   287.28899      0.016708652   -19.176273      712.7719      -39.560076      673.21182    
      5000   296.66925      0.016708652    8.6222664      736.04458     -43.092241      692.95234    
      6000   313.70292      0.016708652    6.7911518      778.3056      -45.160038      733.14556    
      7000   306.37908      0.016708652    8.8208314      760.13494     -50.474583      709.66035    
      8000   313.52286      0.016708652    6.9781783      777.85886     -57.206588      720.65228    
      9000   293.22555      0.016708652    8.4400049      727.50066     -60.484407      667.01625    
     10000   285.48679      0.016708652    8.8606818      708.30059     -67.558382      640.74221    
     11000   300.90829      0.016708652    14.075127      746.56176     -68.472905      678.08886    
     12000   307.19739      0.016708652    8.3310098      762.16519     -62.099796      700.0654     
     13000   290.656        0.016708652    7.4456005      721.12556     -61.689777      659.43578    
     14000   294.66518      0.016708652    14.312498      731.07244     -65.450322      665.62212    
     15000   311.22045      0.016708652    9.2977933      772.1465      -64.068216      708.07829    
     16000   300.57888      0.016708652    2.4984518      745.74449     -69.627878      676.11661    
     17000   303.6513       0.016708652    7.4317676      753.36725     -68.131182      685.23606    
     18000   298.76546      0.016708652    7.7994845      741.24535     -69.155372      672.08997    
     19000   322.49326      0.016708652    9.0318199      800.11467     -74.653301      725.46137    
     20000   298.67496      0.016708652    6.7927967      741.02082     -78.884618      662.1362     
     21000   293.5444       0.016708652    9.4861724      728.29174     -79.717475      648.57426    
     22000   312.13575      0.016708652    9.1664034      774.41741     -80.926797      693.49061    
     23000   305.10622      0.016708652    8.0226643      756.97694     -80.760211      676.21673    
     24000   306.44272      0.016708652    9.8864486      760.29283     -77.876821      682.41601    
     25000   288.72251      0.016708652    8.0777928      716.3285      -78.43203       637.89647    
     26000   296.04015      0.016708652    8.8161504      734.48377     -80.938564      653.54521    
     27000   312.06627      0.016708652    10.224124      774.24501     -81.27641       692.9686     
     28000   311.88308      0.016708652    10.710281      773.79052     -85.181371      688.60915    
     29000   298.69437      0.016708652    7.7228         741.06896     -87.815659      653.2533     
     30000   289.82278      0.016708652    10.031147      719.0583      -95.388944      623.66936    
     31000   304.275        0.016708652    8.8899888      754.91466     -89.676652      665.23801    
     32000   295.17703      0.016708652    11.832764      732.34236     -87.637076      644.70528    
     33000   302.52237      0.016708652    8.8113443      750.56633     -92.221765      658.34456    
     34000   299.21646      0.016708652    7.3616149      742.36428     -95.335407      647.02887    
     35000   293.76545      0.016708652    11.216535      728.84019     -94.394177      634.44601    
     36000   316.11012      0.016708652    12.19784       784.27791     -100.67091      683.60701    
     37000   301.14267      0.016708652    8.758047       747.14327     -105.56541      641.57787    
     38000   294.865        0.016708652    8.7130852      731.5682      -107.06223      624.50597    
     39000   297.50296      0.016708652    11.845763      738.11305     -105.79524      632.31781    
     40000   311.75493      0.016708652    6.3448206      773.47258     -109.70409      663.7685     
     41000   305.9007       0.016708652    7.0006587      758.94806     -109.52019      649.42787    
     42000   298.23759      0.016708652    8.9717216      739.93569     -108.34108      631.59461    
     43000   303.92659      0.016708652    9.9177682      754.05024     -112.81224      641.23799    
     44000   295.79295      0.016708652    7.1302577      733.87045     -117.45947      616.41099    
     45000   286.66777      0.016708652    12.248513      711.23064     -114.33971      596.89093    
     46000   308.24593      0.016708652    10.734796      764.76665     -120.09402      644.67263    
     47000   297.43203      0.016708652    13.394772      737.93706     -114.95312      622.98394    
     48000   301.94869      0.016708652    8.5298228      749.14303     -115.3163       633.82673    
     49000   307.04669      0.016708652    5.9159966      761.79129     -117.66457      644.12672    
     50000   290.44799      0.016708652    2.5958001      720.60946     -122.68196      597.9275     
     51000   293.79809      0.016708652    10.91236       728.92116     -119.97519      608.94596    
     52000   307.50582      0.016708652    9.5553013      762.93041     -117.09212      645.83828    
     53000   312.87669      0.016708652    7.7282286      776.2557      -116.92318      659.33252    
     54000   289.70639      0.016708652    7.8578658      718.76953     -124.10081      594.66872    
     55000   294.09472      0.016708652    5.0580266      729.6571      -126.82229      602.83481    
     56000   304.30924      0.016708652    9.6024267      754.99961     -130.92648      624.07313    
     57000   306.55891      0.016708652    7.2528578      760.58111     -131.13023      629.45088    
     58000   287.8421       0.016708652    6.7333411      714.14419     -135.61941      578.52477    
     59000   298.57122      0.016708652    8.6311655      740.76343     -137.85552      602.90791    
     60000   299.73289      0.016708652    11.637443      743.64555     -129.83625      613.8093     
     61000   301.36625      0.016708652    8.6280064      747.69799     -128.57755      619.12044    
     62000   295.73335      0.016708652    8.2491035      733.72259     -123.88705      609.83554    
     63000   298.93671      0.016708652    6.7407759      741.67023     -128.70563      612.9646     
     64000   312.74155      0.016708652    11.112819      775.92041     -130.03942      645.881      
     65000   294.05802      0.016708652    8.1376068      729.56604     -135.02567      594.54037    
     66000   290.19374      0.016708652    8.6439773      719.97866     -134.08664      585.89202    
     67000   303.55831      0.016708652    10.228037      753.13655     -134.19952      618.93703    
     68000   308.58895      0.016708652    7.2517858      765.61768     -139.25051      626.36717    
     69000   298.95687      0.016708652    7.7045297      741.72024     -137.59804      604.12219    
     70000   299.11375      0.016708652    7.8862564      742.10946     -128.27669      613.83277    
     71000   297.73534      0.016708652    13.238938      738.68959     -127.51132      611.17826    
     72000   306.21138      0.016708652    0.53798239     759.71888     -137.05699      622.66189    
     73000   306.12266      0.016708652   -2.4549116      759.49875     -129.76669      629.73206    
     74000   289.43999      0.016708652    7.5755995      718.10859     -128.24545      589.86314    
     75000   300.44256      0.016708652    15.50105       745.40628     -138.75083      606.65545    
     76000   323.77355      0.016708652    8.9774371      803.29111     -130.42611      672.86499    
     77000   297.31979      0.016708652    5.6145375      737.65858     -129.58167      608.07691    
     78000   295.10684      0.016708652    1.0306232      732.1682      -136.59557      595.57263    
     79000   302.93426      0.016708652    10.605655      751.58826     -135.04691      616.54134    
     80000   298.6719       0.016708652    8.020464       741.01321     -132.60835      608.40486    
     81000   302.78533      0.016708652    8.5433232      751.21876     -127.43328      623.78548    
     82000   294.77939      0.016708652    12.757382      731.35578     -129.48619      601.86959    
     83000   294.43231      0.016708652    6.5980105      730.49467     -134.90757      595.5871     
     84000   300.41653      0.016708652    7.5244609      745.34169     -137.35911      607.98258    
     85000   312.1503       0.016708652    7.878857       774.4535      -140.73464      633.71886    
     86000   295.78609      0.016708652    9.0154447      733.85345     -142.56842      591.28504    
     87000   292.4203       0.016708652    10.774229      725.50283     -135.43945      590.06338    
     88000   299.59548      0.016708652    7.9403802      743.30464     -135.74699      607.55765    
     89000   305.26641      0.016708652    10.125968      757.37437     -134.34317      623.03119    
     90000   304.80747      0.016708652    10.027346      756.23574     -136.98635      619.24939    
     91000   303.44366      0.016708652    7.8645012      752.8521      -138.24865      614.60345    
     92000   282.56836      0.016708652    11.383089      701.05988     -140.29359      560.76629    
     93000   301.65084      0.016708652    7.9508836      748.40405     -141.22531      607.17873    
     94000   306.92835      0.016708652    8.8400412      761.49771     -142.41553      619.08218    
     95000   305.37521      0.016708652    12.562166      757.64432     -139.37781      618.26651    
     96000   285.55558      0.016708652    10.629361      708.47126     -134.34238      574.12887    
     97000   292.76263      0.016708652    6.8861041      726.35216     -135.11641      591.23574    
     98000   296.28125      0.016708652    6.3270743      735.08196     -134.43294      600.64902    
     99000   307.52463      0.016708652    11.565472      762.97707     -129.00507      633.972      
    100000   299.51887      0.016708652    6.7259388      743.11458     -140.01199      603.10259    
    101000   294.66831      0.016708652   -2.5286257      731.0802      -143.19259      587.8876     
    102000   300.38549      0.016708652    4.3405446      745.26468     -141.42725      603.83743    
    103000   301.84319      0.016708652    16.014689      748.88128     -137.66313      611.21815    
    104000   303.70702      0.016708652    8.3876319      753.50548     -141.05608      612.4494     
    105000   307.74407      0.016708652    4.4588884      763.52151     -141.89323      621.62828    
    106000   279.81016      0.016708652    10.903775      694.21671     -138.69048      555.52624    
    107000   306.17776      0.016708652    10.425666      759.63545     -133.73331      625.90214    
    108000   306.58067      0.016708652    7.8271557      760.63509     -141.34012      619.29497    
    109000   295.86134      0.016708652    5.9887659      734.04015     -144.28374      589.7564     
    110000   289.76542      0.016708652    6.2890666      718.91598     -141.92639      576.98959    
    111000   298.85254      0.016708652    4.7256701      741.4614      -142.45156      599.00984    
    112000   304.93709      0.016708652    7.7853261      756.55732     -141.48189      615.07543    
    113000   306.48684      0.016708652    8.5799255      760.40229     -139.31871      621.08358    
    114000   306.34656      0.016708652    8.0102886      760.05426     -138.59408      621.46018    
    115000   284.47768      0.016708652    7.5750791      705.79697     -133.25883      572.53814    
    116000   301.07566      0.016708652    5.2997415      746.97701     -144.41448      602.56253    
    117000   312.77315      0.016708652    9.3885367      775.99881     -142.07924      633.91957    
    118000   292.1486       0.016708652    9.9565559      724.82874     -144.76334      580.0654     
    119000   290.12909      0.016708652    2.5028854      719.81827     -141.66515      578.15312    
    120000   300.87137      0.016708652    7.5057456      746.47016     -142.67093      603.79923    
    121000   301.0576       0.016708652    13.955088      746.9322      -134.77432      612.15788    
    122000   302.97548      0.016708652    5.1013008      751.69052     -142.82064      608.86987    
    123000   317.11834      0.016708652    14.453561      786.77933     -134.46121      652.31812    
    124000   291.15334      0.016708652    17.418694      722.35946     -135.78061      586.57885    
    125000   294.81841      0.016708652    7.9397518      731.4526      -133.01716      598.43544    
    126000   317.30895      0.016708652    5.1811588      787.25225     -134.93798      652.31427    
    127000   296.54584      0.016708652    20.873319      735.73841     -134.23791      601.5005     
    128000   298.76353      0.016708652    11.309029      741.24056     -134.53505      606.70551    
    129000   307.91489      0.016708652    2.4420816      763.94533     -133.00117      630.94416    
    130000   308.30915      0.016708652    6.6384087      764.92351     -131.60262      633.32089    
    131000   299.70761      0.016708652    11.352885      743.58284     -139.58743      603.99541    
    132000   301.49984      0.016708652    11.879163      748.02942     -138.0124       610.01701    
    133000   286.3679       0.016708652    12.760246      710.48666     -137.33082      573.15584    
    134000   299.60739      0.016708652    6.0997799      743.3342      -136.05137      607.28283    
    135000   303.47661      0.016708652    5.7714573      752.93384     -133.56413      619.36972    
    136000   308.80993      0.016708652    9.4626963      766.16595     -139.26347      626.90248    
    137000   297.18573      0.016708652    9.7117029      737.326       -143.61544      593.71056    
    138000   292.02995      0.016708652    7.4431134      724.53436     -146.27347      578.26089    
    139000   313.28106      0.016708652    8.3807193      777.25895     -147.00426      630.25469    
    140000   309.69354      0.016708652    10.632057      768.35821     -148.45703      619.90118    
    141000   289.8901       0.016708652    9.9118129      719.22532     -147.98758      571.23774    
    142000   302.69139      0.016708652    4.4444034      750.98567     -139.20599      611.77969    
    143000   300.50389      0.016708652    7.2121409      745.55843     -131.96734      613.59109    
    144000   311.48745      0.016708652    8.3730989      772.80894     -132.42974      640.3792     
    145000   298.48026      0.016708652    7.3664587      740.53776     -128.19847      612.33929    
    146000   291.21923      0.016708652    9.0312717      722.52295     -128.16751      594.35544    
    147000   299.02369      0.016708652    10.449648      741.88601     -132.31592      609.5701     
    148000   311.695        0.016708652   -1.5969881      773.32388     -123.71852      649.60537    
    149000   287.98689      0.016708652   -4.2729373      714.50341     -126.176        588.32741    
    150000   291.12575      0.016708652    9.4242931      722.291       -126.14004      596.15097    
    151000   310.09885      0.016708652    8.2030352      769.36379     -126.10945      643.25434    
    152000   307.13217      0.016708652    11.003921      762.00338     -137.52874      624.47464    
    153000   296.74142      0.016708652    9.671251       736.22364     -131.87082      604.35281    
    154000   297.95053      0.016708652    12.807254      739.22348     -131.07642      608.14706    
    155000   288.44845      0.016708652    6.7255764      715.64856     -132.04989      583.59867    
    156000   319.15764      0.016708652    6.3957674      791.83891     -128.68979      663.14912    
    157000   310.36336      0.016708652    9.2247494      770.02006     -128.48353      641.53653    
    158000   294.622        0.016708652    10.443411      730.9653      -125.00044      605.96487    
    159000   292.99599      0.016708652    7.6556648      726.93112     -121.86462      605.06651    
    160000   296.04054      0.016708652    8.2333478      734.48474     -120.90932      613.57542    
    161000   311.48254      0.016708652    8.5908298      772.79677     -116.39587      656.4009     
    162000   307.50194      0.016708652    8.8698711      762.9208      -121.12798      641.79282    
    163000   288.08229      0.016708652    7.6397632      714.7401      -120.24393      594.49617    
    164000   300.49111      0.016708652    10.020862      745.52672     -128.60082      616.9259     
    165000   302.45031      0.016708652    10.634643      750.38756     -124.58287      625.80469    
    166000   300.45974      0.016708652    4.1703933      745.44889     -124.79955      620.64934    
    167000   291.05957      0.016708652    7.8859239      722.12682     -124.52877      597.59806    
    168000   305.76997      0.016708652    9.4204274      758.62372     -124.07892      634.5448     
    169000   307.23171      0.016708652    8.4766269      762.25035     -123.32158      638.92877    
    170000   294.16299      0.016708652    5.3230487      729.82648     -130.81318      599.01331    
    171000   296.08063      0.016708652    7.3889635      734.58419     -125.58234      609.00185    
    172000   298.53625      0.016708652    7.6533698      740.67666     -129.95153      610.72513    
    173000   311.21483      0.016708652    7.3007442      772.13258     -127.63102      644.50156    
    174000   293.20981      0.016708652    6.0969394      727.46162     -130.09463      597.36699    
    175000   295.04464      0.016708652    8.986976       732.01387     -120.71094      611.30293    
    176000   312.88363      0.016708652    9.2834171      776.27291     -125.87508      650.39783    
    177000   295.46337      0.016708652    9.315911       733.05277     -117.59337      615.4594     
    178000   290.37723      0.016708652    5.4837897      720.43391     -119.07584      601.35807    
    179000   309.33007      0.016708652    8.5689249      767.45643     -119.74739      647.70904    
    180000   297.24576      0.016708652    7.2467604      737.47493     -121.6967       615.77822    
    181000   299.19839      0.016708652    8.2559021      742.31944     -123.30193      619.01752    
    182000   292.49329      0.016708652    8.0058261      725.6839      -129.44208      596.24183    
    183000   280.54416      0.016708652   -2.4170667      696.0378      -125.5734       570.46439    
    184000   285.38508      0.016708652    4.9086809      708.04826     -120.63955      587.40871    
    185000   310.2411       0.016708652    11.802131      769.71671     -120.95024      648.76648    
    186000   319.96829      0.016708652   -3.6035099      793.85014     -116.51844      677.3317     
    187000   292.60561      0.016708652   -0.64605601     725.96259     -119.41257      606.55002    
    188000   303.73053      0.016708652    11.170782      753.56382     -115.86136      637.70247    
    189000   299.82238      0.016708652    10.27732       743.8676      -112.35673      631.51086    
    190000   301.739        0.016708652    8.5974809      748.62278     -111.06984      637.55295    
    191000   305.55084      0.016708652    6.0030601      758.08006     -111.84753      646.23253    
    192000   305.09232      0.016708652    8.712728       756.94246     -114.15998      642.78248    
    193000   297.48347      0.016708652    12.123564      738.06469     -104.51975      633.54494    
    194000   300.85131      0.016708652    5.2628091      746.42038     -115.10067      631.31972    
    195000   303.13468      0.016708652    7.1682659      752.0855      -107.60535      644.48015    
    196000   319.01565      0.016708652    10.328435      791.48661     -108.4306       683.05601    
    197000   305.68484      0.016708652    7.6574282      758.41252     -105.84042      652.5721     
    198000   299.33805      0.016708652    7.4275294      742.66594     -103.86757      638.79838    
    199000   301.82115      0.016708652    11.022843      748.82659     -104.13707      644.68953    
    200000   304.31621      0.016708652    9.4445113      755.01691     -108.30997      646.70693    
    201000   292.65268      0.016708652    3.5158426      726.07937     -110.79403      615.28534    
    202000   295.12374      0.016708652    7.5012969      732.21012     -106.88619      625.32393    
    203000   292.87141      0.016708652    7.8955635      726.62205     -113.03831      613.58374    
    204000   289.543        0.016708652    9.314266       718.36417     -106.90136      611.46281    
    205000   301.14152      0.016708652    8.1614936      747.14042     -99.193117      647.9473     
    206000   295.60904      0.016708652    8.7061734      733.41417     -105.12693      628.28724    
    207000   295.53884      0.016708652    10.823964      733.24        -105.34541      627.89459    
    208000   300.136        0.016708652    7.2809825      744.6457      -101.69952      642.94618    
    209000   316.78267      0.016708652    8.7489913      785.94653     -110.34378      675.60275    
    210000   297.29816      0.016708652    9.2452928      737.60494     -104.70891      632.89603    
    211000   291.09123      0.016708652    10.037366      722.20536     -102.28996      619.9154     
    212000   288.39354      0.016708652   -11.638458      715.51233     -95.829051      619.68328    
    213000   309.68614      0.016708652    3.9344794      768.33984     -92.812156      675.52769    
    214000   298.36134      0.016708652    12.385796      740.24271     -101.32412      638.91859    
    215000   295.49688      0.016708652   -0.13376892     733.1359      -101.98807      631.14783    
    216000   307.2629       0.016708652    2.6485964      762.32771     -94.27656       668.05115    
    217000   316.96299      0.016708652    14.033349      786.39391     -99.45413       686.93978    
    218000   318.60037      0.016708652    21.402363      790.4563      -104.65914      685.79717    
    219000   292.49084      0.016708652    12.016732      725.67783     -97.943748      627.73408    
    220000   298.07304      0.016708652    2.7013395      739.52743     -98.952184      640.57524    
    221000   318.03483      0.016708652    3.4128824      789.05318     -92.377787      696.67539    
    222000   298.78515      0.016708652    11.438356      741.29418     -100.4869       640.80728    
    223000   290.07625      0.016708652    4.7392719      719.68717     -101.94164      617.74553    
    224000   318.42891      0.016708652    3.6669907      790.03091     -102.40603      687.62488    
    225000   305.98556      0.016708652    21.425827      759.1586      -96.950674      662.20792    
    226000   286.81704      0.016708652    5.5821966      711.60098     -98.200422      613.40056    
    227000   307.19292      0.016708652    1.4405168      762.1541      -95.400448      666.75365    
    228000   306.55294      0.016708652    16.294867      760.56628     -87.660173      672.90611    
    229000   292.8899       0.016708652    10.169628      726.66793     -88.773585      637.89434    
    230000   287.87465      0.016708652    6.962681       714.22494     -85.209518      629.01542    
    231000   304.64161      0.016708652    5.6480433      755.82422     -89.388097      666.43612    
    232000   297.54416      0.016708652    8.5688189      738.21527     -90.59134       647.62393    
    233000   299.58385      0.016708652    9.5724055      743.27579     -85.735543      657.54024    
    234000   296.08357      0.016708652    7.3925239      734.59151     -88.336614      646.25489    
    235000   300.91152      0.016708652    8.8293425      746.56976     -83.883119      662.68664    
    236000   314.72868      0.016708652    10.209335      780.85053     -85.142105      695.70842    
    237000   314.26282      0.016708652    3.9241874      779.69471     -87.96329       691.73142    
    238000   300.268        0.016708652    8.6756916      744.97318     -83.502256      661.47093    
    239000   292.98304      0.016708652    7.1615028      726.899       -86.855544      640.04346    
    240000   304.7964       0.016708652    11.259117      756.20827     -83.683119      672.52515    
    241000   301.90424      0.016708652    8.1996286      749.03275     -85.505103      663.52765    
    242000   304.44482      0.016708652    6.4680559      755.33598     -82.988457      672.34752    
    243000   295.60029      0.016708652    6.2547779      733.39247     -77.663526      655.72894    
    244000   292.22064      0.016708652    17.11306       725.00746     -77.205562      647.80189    
    245000   306.69203      0.016708652    11.615046      760.91137     -73.18199       687.72938    
    246000   292.91294      0.016708652    3.9988299      726.72509     -72.935113      653.78997    
    247000   293.61809      0.016708652    10.6775        728.47457     -79.150723      649.32385    
    248000   318.92752      0.016708652    10.658739      791.26796     -76.000385      715.26757    
    249000   308.97201      0.016708652    6.490931       766.56806     -74.438973      692.12909    
    250000   293.0591       0.016708652    8.2904266      727.0877      -74.12425       652.96345    
    251000   283.20317      0.016708652    7.2534016      702.63486     -73.631155      629.00371    
    252000   304.93097      0.016708652    7.8776327      756.54215     -74.192127      682.35002    
    253000   306.74185      0.016708652    8.2874472      761.03498     -74.4946        686.54038    
    254000   303.24752      0.016708652    10.163871      752.36545     -69.405602      682.95985    
    255000   304.95026      0.016708652    9.3003971      756.59        -70.906752      685.68324    
    256000   308.39605      0.016708652    8.3241068      765.13911     -72.895152      692.24395    
    257000   308.53359      0.016708652   -0.45155572     765.48035     -78.846456      686.63389    
    258000   305.61744      0.016708652    8.1262358      758.24528     -76.582505      681.66278    
    259000   307.77118      0.016708652    15.120873      763.58877     -78.942123      684.64665    
    260000   301.88567      0.016708652    8.1466612      748.98668     -78.441346      670.54533    
    261000   305.25491      0.016708652    6.2445701      757.34584     -74.597667      682.74817    
    262000   296.92729      0.016708652    10.526966      736.68479     -78.14124       658.54355    
    263000   302.66755      0.016708652    12.492012      750.92653     -77.327136      673.59939    
    264000   295.68014      0.016708652    3.9269755      733.59058     -75.526495      658.06409    
    265000   305.3932       0.016708652    3.7185236      757.68895     -73.575906      684.11304    
    266000   305.69008      0.016708652    19.708531      758.42552     -72.089187      686.33634    
    267000   306.8051       0.016708652    17.997981      761.19191     -70.459708      690.7322     
    268000   295.07188      0.016708652    7.5451778      732.08148     -70.801775      661.2797     
    269000   298.04807      0.016708652   -1.2343224      739.46548     -65.963048      673.50244    
    270000   311.26321      0.016708652    9.8152883      772.25259     -64.6801        707.57249    
    271000   305.03381      0.016708652    24.648902      756.79729     -68.192804      688.60449    
    272000   288.20687      0.016708652    21.481083      715.04919     -66.111243      648.93794    
    273000   306.69008      0.016708652    0.73791295     760.90654     -71.314934      689.59161    
    274000   303.25433      0.016708652    0.12674718     752.38234     -72.098103      680.28424    
    275000   306.16734      0.016708652    15.192274      759.60962     -71.216354      688.39326    
    276000   305.68318      0.016708652    8.5539398      758.4084      -77.287562      681.12084    
    277000   296.96218      0.016708652    5.2901233      736.77134     -73.992671      662.77867    
    278000   299.71895      0.016708652   -1.7734159      743.61097     -74.011092      669.59988    
    279000   320.71236      0.016708652    6.2432633      795.6962      -78.533118      717.16309    
    280000   304.04475      0.016708652    13.977818      754.34342     -79.673831      674.66959    
    281000   284.28223      0.016708652    9.3745347      705.31204     -68.46767       636.84437    
    282000   309.36144      0.016708652    3.476376       767.53427     -71.515285      696.01898    
    283000   322.62719      0.016708652    7.0581183      800.44696     -70.588643      729.85832    
    284000   291.92453      0.016708652    22.135667      724.27281     -69.877646      654.39517    
    285000   290.62428      0.016708652    6.3040725      721.04685     -62.528086      658.51876    
    286000   307.54651      0.016708652   -4.6572826      763.03137     -67.533898      695.49748    
    287000   309.70359      0.016708652    8.1348788      768.38314     -65.447171      702.93597    
    288000   293.73525      0.016708652    14.386335      728.76525     -61.576703      667.18855    
    289000   300.46102      0.016708652    14.092803      745.45207     -62.432334      683.01973    
    290000   289.06432      0.016708652   -2.8898625      717.17656     -62.512234      654.66432    
    291000   305.93058      0.016708652   -12.574761      759.0222      -61.834848      697.18735    
    292000   300.09853      0.016708652    14.9671        744.55272     -57.998004      686.55471    
    293000   302.85273      0.016708652    2.1676495      751.38597     -64.981611      686.40436    
    294000   306.07935      0.016708652    9.4239758      759.39131     -68.82409       690.56722    
    295000   276.12419      0.016708652    9.6955301      685.07173     -72.182262      612.88946    
    296000   294.98684      0.016708652    15.729556      731.87049     -69.766281      662.10421    
    297000   299.85821      0.016708652    2.7542027      743.9565      -64.704705      679.25179    
    298000   296.8216       0.016708652   -5.4810637      736.42256     -66.73021       669.69235    
    299000   306.5519       0.016708652    16.224335      760.56372     -65.103603      695.46012    
    300000   304.85393      0.016708652    15.747392      756.35099     -66.356577      689.99442    
    301000   288.77993      0.016708652    5.9203598      716.47096     -65.893099      650.57786    
    302000   298.53351      0.016708652   -2.3825503      740.66987     -68.406348      672.26352    
    303000   311.15981      0.016708652    11.843951      771.99606     -66.154032      705.84202    
    304000   284.62868      0.016708652    15.478492      706.17161     -67.039156      639.13246    
    305000   306.63761      0.016708652    1.5124581      760.77637     -66.250104      694.52626    
    306000   319.04834      0.016708652    1.5791242      791.56771     -67.5222        724.04551    
    307000   291.81157      0.016708652    14.979687      723.99256     -72.641298      651.35126    
    308000   296.63093      0.016708652    9.0131236      735.94951     -72.737607      663.2119     
    309000   306.71422      0.016708652    7.0471764      760.96643     -66.983391      693.98304    
    310000   302.7504       0.016708652    8.4570757      751.13209     -55.604646      695.52744    
    311000   310.8389       0.016708652    2.4835347      771.19989     -57.794584      713.40531    
    312000   298.87745      0.016708652    11.166413      741.5232      -56.832399      684.6908     
    313000   293.6238       0.016708652    6.4629118      728.48875     -64.155718      664.33303    
    314000   318.31402      0.016708652    9.1875667      789.74586     -57.227258      732.5186     
    315000   305.26379      0.016708652    8.5046394      757.36787     -63.931563      693.43631    
    316000   290.76824      0.016708652    7.9539177      721.40402     -61.788994      659.61502    
    317000   286.90774      0.016708652    11.045384      711.826       -65.279035      646.54697    
    318000   306.0075       0.016708652    11.289435      759.21305     -62.198686      697.01436    
    319000   324.02755      0.016708652    10.75313       803.92129     -64.191676      739.72962    
    320000   299.06163      0.016708652    6.7480551      741.98014     -59.682361      682.29778    
    321000   288.08923      0.016708652    8.5677679      714.75733     -61.310372      653.44695    
    322000   303.10271      0.016708652    11.900353      752.00619     -60.143039      691.86315    
    323000   307.95685      0.016708652    10.048467      764.04944     -58.641162      705.40828    
    324000   302.05549      0.016708652    3.6948966      749.408       -55.450662      693.95734    
    325000   300.97597      0.016708652    9.6312935      746.72968     -57.858358      688.87132    
    326000   314.31342      0.016708652    9.9916846      779.82026     -55.352719      724.46754    
    327000   296.09344      0.016708652    9.1100431      734.616       -56.79413       677.82187    
    328000   281.09005      0.016708652    8.4598153      697.39216     -53.84747       643.54469    
    329000   301.61733      0.016708652    8.9635263      748.32091     -57.454042      690.86687    
    330000   308.8257       0.016708652    10.558448      766.20506     -57.596786      708.60828    
    331000   296.25353      0.016708652    10.955475      735.01318     -54.102117      680.91106    
    332000   297.98698      0.016708652    9.8644468      739.31391     -55.684634      683.62927    
    333000   290.97281      0.016708652    7.6065724      721.91157     -56.115415      665.79615    
    334000   296.3346       0.016708652    9.302304       735.21432     -51.69048       683.52384    
    335000   304.6273       0.016708652    8.9780234      755.78872     -55.412711      700.37601    
    336000   305.84564      0.016708652    14.903021      758.81148     -55.937263      702.87421    
    337000   286.72775      0.016708652    6.1319665      711.37945     -54.797561      656.58188    
    338000   302.25812      0.016708652    5.7883651      749.91072     -57.327225      692.58349    
    339000   311.05341      0.016708652    8.2082799      771.73209     -52.411577      719.32051    
    340000   311.72528      0.016708652    8.6413597      773.399       -49.177632      724.22137    
    341000   296.32803      0.016708652    11.242214      735.198       -52.009131      683.18887    
    342000   295.89462      0.016708652    10.235408      734.12271     -53.290455      680.83226    
    343000   304.29158      0.016708652    1.4949803      754.9558      -48.576819      706.37898    
    344000   305.58253      0.016708652    6.9727908      758.15867     -48.64058       709.51809    
    345000   301.6412       0.016708652    9.5577866      748.38014     -50.636283      697.74386    
    346000   295.57331      0.016708652    9.6809626      733.32553     -54.964788      678.36075    
    347000   295.8703       0.016708652    8.0034387      734.06236     -54.282858      679.7795     
    348000   294.69357      0.016708652    9.3069839      731.14287     -52.760836      678.38203    
    349000   290.85105      0.016708652    6.528749       721.60947     -54.788938      666.82053    
    350000   295.58836      0.016708652    8.7162802      733.36286     -50.410702      682.95216    
    351000   301.89838      0.016708652    12.61767       749.01819     -55.274839      693.74336    
    352000   314.14313      0.016708652    12.799721      779.39777     -54.237244      725.16052    
    353000   311.85035      0.016708652    8.2140459      773.7093      -60.72208       712.98722    
    354000   293.89073      0.016708652    7.3543445      729.15101     -50.842445      678.30857    
    355000   284.18133      0.016708652    4.7379929      705.06171     -50.693251      654.36846    
    356000   305.30254      0.016708652    10.34919       757.46402     -53.618582      703.84544    
    357000   308.8962       0.016708652    6.7587643      766.37999     -51.212864      715.16713    
    358000   292.58383      0.016708652    8.5999317      725.90856     -50.590545      675.31801    
    359000   292.92444      0.016708652    9.4796686      726.75362     -50.742182      676.01144    
    360000   303.62012      0.016708652    10.590796      753.28988     -48.828565      704.46132    
    361000   306.62442      0.016708652    8.058016       760.74364     -48.648246      712.09539    
    362000   285.87082      0.016708652    8.111879       709.25338     -48.625287      660.62809    
    363000   301.16689      0.016708652    11.008432      747.20336     -46.951015      700.25235    
    364000   319.76189      0.016708652    10.824016      793.33806     -50.952861      742.3852     
    365000   288.61457      0.016708652    4.8897334      716.0607      -48.60603       667.45467    
    366000   297.67665      0.016708652    9.7157276      738.54396     -46.28647       692.25749    
    367000   301.4069       0.016708652    9.2651789      747.79883     -43.467634      704.3312     
    368000   302.32411      0.016708652    7.7115903      750.07446     -45.692451      704.38201    
    369000   301.17407      0.016708652    7.4318002      747.22116     -49.590556      697.63061    
    370000   310.22413      0.016708652    9.9961649      769.67461     -50.599656      719.07495    
    371000   295.14945      0.016708652    8.6941598      732.27392     -52.185583      680.08834    
    372000   310.67319      0.016708652    11.14836       770.78876     -57.602542      713.18621    
    373000   312.32362      0.016708652    8.9188679      774.8835      -55.499014      719.38449    
    374000   288.50711      0.016708652    6.4572495      715.79409     -54.198754      661.59534    
    375000   294.13625      0.016708652    10.842422      729.76014     -56.913501      672.84664    
    376000   314.41302      0.016708652    11.192774      780.06738     -54.756758      725.31062    
    377000   307.43115      0.016708652    7.4785666      762.74515     -52.684172      710.06098    
    378000   296.38002      0.016708652    0.68243545     735.32701     -55.704266      679.62274    
    379000   294.47254      0.016708652    13.489925      730.59448     -55.036446      675.55803    
    380000   296.92235      0.016708652    8.8345084      736.67254     -58.303442      678.3691     
    381000   311.30369      0.016708652    8.3821955      772.35305     -57.531454      714.82159    
    382000   304.31668      0.016708652    7.0971886      755.01807     -55.402727      699.61534    
    383000   293.28356      0.016708652    12.865015      727.64459     -54.795669      672.84892    
    384000   307.23822      0.016708652    8.2267084      762.2665      -50.757562      711.50894    
    385000   299.17427      0.016708652    7.3469874      742.25962     -50.258302      692.00132    
    386000   295.36527      0.016708652    10.274139      732.80939     -48.620693      684.18869    
    387000   303.33902      0.016708652    9.4627043      752.59246     -52.933078      699.65939    
    388000   293.20322      0.016708652    6.5819646      727.44528     -49.958824      677.48645    
    389000   295.33985      0.016708652    7.5758349      732.74631     -51.792056      680.95425    
    390000   291.64443      0.016708652    11.519095      723.57786     -48.016553      675.56131    
    391000   300.07715      0.016708652    11.323551      744.49968     -52.878812      691.62087    
    392000   313.47663      0.016708652    2.2318044      777.74415     -52.395883      725.34826    
    393000   297.60378      0.016708652    7.216691       738.36318     -50.744187      687.61899    
    394000   294.78647      0.016708652    6.3968318      731.37335     -50.739385      680.63396    
    395000   316.84478      0.016708652    21.374065      786.10062     -53.414058      732.68656    
    396000   306.20622      0.016708652    10.619118      759.70608     -46.704099      713.00198    
    397000   305.47435      0.016708652    7.5616684      757.89028     -51.743653      706.14663    
    398000   290.80577      0.016708652    3.0964589      721.49712     -49.473983      672.02314    
    399000   299.73721      0.016708652    12.216822      743.65628     -52.053092      691.60319    
    400000   298.10484      0.016708652    18.60002       739.60633     -49.484166      690.12216    
    401000   309.43431      0.016708652    14.552344      767.71504     -45.200136      722.51491    
    402000   301.73555      0.016708652    11.000672      748.61421     -45.935319      702.67889    
    403000   304.71323      0.016708652    6.4145719      756.00193     -46.893395      709.10854    
    404000   311.72328      0.016708652    7.3586324      773.39404     -42.770215      730.62382    
    405000   301.42744      0.016708652    10.97075       747.84978     -48.303458      699.54632    
    406000   309.52993      0.016708652    13.377023      767.95229     -50.039181      717.91311    
    407000   307.91241      0.016708652    1.0527659      763.93917     -53.857999      710.08117    
    408000   290.10446      0.016708652   -0.1654891      719.75716     -48.216777      671.54038    
    409000   292.32509      0.016708652    9.9334225      725.26661     -49.716179      675.55043    
    410000   307.24598      0.016708652    10.947071      762.28574     -44.040124      718.24562    
    411000   300.14799      0.016708652    11.167738      744.67544     -46.32174       698.3537     
    412000   308.52853      0.016708652    7.9666763      765.46778     -46.784074      718.6837     
    413000   305.4568       0.016708652    7.5096917      757.84674     -44.245945      713.60079    
    414000   290.86179      0.016708652    11.160335      721.63611     -44.430826      677.20528    
    415000   300.8573       0.016708652    25.037549      746.43525     -43.422974      703.01227    
    416000   314.65137      0.016708652    6.571886       780.65872     -40.085167      740.57356    
    417000   293.16065      0.016708652    1.5984602      727.33966     -45.45587       681.88379    
    418000   294.30273      0.016708652    10.501827      730.17319     -48.942241      681.23095    
    419000   300.63112      0.016708652    10.251987      745.8741      -42.683383      703.19072    
    420000   318.56809      0.016708652    7.032034       790.37621     -42.089606      748.28661    
    421000   297.05308      0.016708652    8.1712848      736.99687     -43.324121      693.67275    
    422000   291.29974      0.016708652    12.397272      722.72267     -38.705131      684.01754    
    423000   302.49059      0.016708652    9.8935815      750.48749     -42.846943      707.64055    
    424000   312.2301       0.016708652    3.3431746      774.65148     -39.646641      735.00483    
    425000   296.47592      0.016708652   -7.5645814      735.56494     -41.93002       693.63492    
    426000   286.81991      0.016708652    6.715122       711.6081      -45.010201      666.5979     
    427000   295.89019      0.016708652    12.350672      734.11173     -49.102116      685.00961    
    428000   319.40391      0.016708652    13.570264      792.44992     -46.958177      745.49174    
    429000   304.41046      0.016708652   -0.064871833    755.25074     -48.91986       706.33088    
    430000   293.23738      0.016708652    9.4593731      727.53001     -47.164999      680.36501    
    431000   314.16947      0.016708652    14.431949      779.46312     -56.18824       723.27488    
    432000   305.17193      0.016708652    6.9287092      757.13997     -55.667981      701.47199    
    433000   291.90328      0.016708652    8.508885       724.22009     -52.601742      671.61835    
    434000   297.02384      0.016708652    8.9169438      736.92433     -55.175708      681.74862    
    435000   303.18154      0.016708652    9.4013761      752.20175     -48.821918      703.37983    
    436000   313.6165       0.016708652    8.912517       778.09119     -48.21447       729.87672    
    437000   299.75406      0.016708652    8.8778271      743.69809     -47.427074      696.27101    
    438000   295.96001      0.016708652    6.2448498      734.28493     -46.404634      687.8803     
    439000   306.41217      0.016708652    12.288584      760.21704     -44.900041      715.317      
    440000   299.17991      0.016708652    11.861163      742.27361     -41.45758       700.81603    
    441000   300.20203      0.016708652    7.7899916      744.80952     -46.673503      698.13601    
    442000   290.00565      0.016708652    5.0537505      719.51201     -51.741194      667.77081    
    443000   314.34392      0.016708652    11.032884      779.89592     -49.433975      730.46194    
    444000   308.83634      0.016708652    13.963373      766.23148     -50.295217      715.93626    
    445000   289.51436      0.016708652   -0.99058643     718.2931      -46.414156      671.87895    
    446000   295.04409      0.016708652    4.5811596      732.01251     -43.591167      688.42134    
    447000   315.76089      0.016708652    19.288442      783.41148     -45.50948       737.902      
    448000   303.47617      0.016708652    9.4348847      752.93275     -43.084383      709.84837    
    449000   289.81806      0.016708652   -5.9293761      719.04659     -44.653664      674.39293    
    450000   308.06912      0.016708652    2.8028308      764.32797     -44.244827      720.08315    
    451000   304.96076      0.016708652    32.823385      756.61604     -44.059307      712.55674    
    452000   291.54621      0.016708652    6.1655475      723.33417     -43.725745      679.60843    
    453000   301.60212      0.016708652    6.5966409      748.28318     -42.129288      706.15389    
    454000   312.0273       0.016708652    6.6283152      774.14832     -44.995273      729.15305    
    455000   300.74392      0.016708652    16.24678       746.15396     -43.003681      703.15028    
    456000   297.09226      0.016708652    15.81805       737.09409     -45.270215      691.82387    
    457000   286.52798      0.016708652   -3.884335       710.88383     -47.269767      663.61406    
    458000   307.90346      0.016708652    0.23780496     763.91698     -49.170472      714.7465     
    459000   299.83563      0.016708652    10.657469      743.90046     -48.137259      695.7632     
    460000   291.51662      0.016708652    14.706663      723.26078     -50.617915      672.64286    
    461000   299.66893      0.016708652    6.3250713      743.48688     -47.547318      695.93956    
    462000   328.61033      0.016708652    0.80238643     815.2913      -48.662652      766.62865    
    463000   302.7577       0.016708652    12.111913      751.1502      -48.451467      702.69873    
    464000   291.18911      0.016708652    3.176821       722.44821     -46.698993      675.74922    
    465000   300.73982      0.016708652    10.950115      746.14377     -47.232562      698.91121    
    466000   295.12165      0.016708652    15.876519      732.20496     -47.784291      684.42067    
    467000   304.27579      0.016708652    1.5032305      754.91662     -47.316702      707.59992    
    468000   310.99227      0.016708652    7.363148       771.5804      -48.900297      722.6801     
    469000   286.56884      0.016708652    15.691255      710.9852      -48.324721      662.66048    
    470000   299.07977      0.016708652    1.2183621      742.02516     -47.389579      694.63558    
    471000   301.53604      0.016708652   -2.4158022      748.11923     -45.335242      702.78399    
    472000   300.61413      0.016708652    30.748008      745.83195     -49.89984       695.93211    
    473000   291.26253      0.016708652    9.3582644      722.63038     -49.097067      673.53331    
    474000   298.37125      0.016708652   -1.8625482      740.2673      -39.17897       701.08833    
    475000   309.13176      0.016708652    9.2079244      766.96441     -36.547611      730.4168     
    476000   303.22926      0.016708652    12.921076      752.32014     -40.075923      712.24422    
    477000   301.30999      0.016708652    22.0735        747.5584      -43.500801      704.0576     
    478000   296.4124       0.016708652    7.2195745      735.40735     -43.71488       691.69247    
    479000   300.3672       0.016708652    4.736254       745.21931     -42.791139      702.42817    
    480000   317.05843      0.016708652    15.956451      786.6307      -41.10183       745.52887    
    481000   297.46377      0.016708652    10.030308      738.01582     -41.835624      696.18019    
    482000   293.1828       0.016708652    0.96765784     727.3946      -39.082482      688.31212    
    483000   322.83983      0.016708652    8.7301127      800.97452     -39.060448      761.91408    
    484000   301.27487      0.016708652    12.708926      747.47125     -38.343114      709.12814    
    485000   288.89487      0.016708652    8.7247703      716.75613     -35.018432      681.73769    
    486000   297.70123      0.016708652    8.0861636      738.60495     -40.506489      698.09846    
    487000   292.80597      0.016708652    11.736384      726.45967     -36.33618       690.12349    
    488000   304.77192      0.016708652    15.586387      756.14753     -36.949704      719.19782    
    489000   309.17212      0.016708652    14.565474      767.06456     -36.157504      730.90706    
    490000   297.60529      0.016708652    6.4391774      738.36693     -36.59581       701.77112    
    491000   308.62975      0.016708652    5.6999045      765.71891     -35.655169      730.06374    
    492000   289.15442      0.016708652    10.007923      717.40009     -34.714773      682.68532    
    493000   301.22187      0.016708652    13.2332        747.33975     -33.537564      713.80219    
    494000   308.0923       0.016708652    6.5946575      764.38548     -37.03357       727.35191    
    495000   294.31129      0.016708652    4.8257576      730.19442     -37.20519       692.98923    
    496000   294.21946      0.016708652    8.8668733      729.96658     -31.332303      698.63428    
    497000   301.55982      0.016708652    12.961748      748.17822     -30.166028      718.01219    
    498000   298.85115      0.016708652    7.8590557      741.45794     -30.094676      711.36326    
    499000   301.54708      0.016708652    8.5411889      748.14661     -31.573922      716.57268    
    500000   300.53791      0.016708652    14.166837      745.64284     -34.565226      711.07761    
    501000   305.56836      0.016708652    7.591775       758.12352     -32.537253      725.58627    
    502000   295.19776      0.016708652    10.510282      732.39379     -31.32893       701.06486    
    503000   294.44872      0.016708652    13.966103      730.53539     -30.677567      699.85782    
    504000   299.97498      0.016708652    14.007269      744.24619     -35.464622      708.78157    
    505000   297.12643      0.016708652    8.2028469      737.17886     -34.001089      703.17777    
    506000   303.60678      0.016708652    8.6357244      753.25679     -35.055797      718.20099    
    507000   306.04639      0.016708652    11.14899       759.30954     -37.442876      721.86666    
    508000   305.02063      0.016708652    4.3145795      756.7646      -34.862797      721.9018     
    509000   285.81031      0.016708652    7.9560806      709.10327     -34.876026      674.22724    
    510000   308.48997      0.016708652    12.246638      765.37211     -31.429784      733.94233    
    511000   311.08051      0.016708652    7.3259555      771.79932     -36.482791      735.31653    
    512000   307.31573      0.016708652    7.080932       762.4588      -40.725489      721.73331    
    513000   310.63609      0.016708652    8.009815       770.69669     -37.192593      733.5041     
    514000   295.21885      0.016708652    7.6955051      732.44611     -34.488434      697.95767    
    515000   297.71019      0.016708652    11.102005      738.62719     -37.761047      700.86614    
    516000   311.10202      0.016708652    7.8818906      771.8527      -36.896303      734.9564     
    517000   302.6064       0.016708652    8.4749665      750.77482     -36.344478      714.43034    
    518000   301.73052      0.016708652    13.346861      748.60174     -34.312724      714.28902    
    519000   296.77504      0.016708652    1.3791006      736.30705     -34.524997      701.78205    
    520000   291.28756      0.016708652    7.1369168      722.69246     -34.004268      688.68819    
    521000   292.10958      0.016708652    16.743946      724.73192     -33.357457      691.37446    
    522000   315.68315      0.016708652    14.897571      783.21861     -41.097237      742.12137    
    523000   299.08306      0.016708652    4.3514475      742.03332     -31.951354      710.08197    
    524000   289.30251      0.016708652    1.5900843      717.7675      -31.733529      686.03397    
    525000   292.50763      0.016708652    12.166096      725.71948     -34.521105      691.19838    
    526000   303.84338      0.016708652    11.448157      753.8438      -30.444723      723.39908    
    527000   318.2163       0.016708652    8.9141918      789.50341     -33.234532      756.26888    
    528000   304.29785      0.016708652    4.581069       754.97137     -32.493314      722.47805    
    529000   300.59216      0.016708652    3.1538725      745.77743     -33.611957      712.16547    
    530000   295.4691       0.016708652    9.7133         733.06699     -30.04902       703.01797    
    531000   300.12119      0.016708652    16.291047      744.60896     -37.309547      707.29941    
    532000   306.10456      0.016708652    13.570037      759.45386     -40.118217      719.33564    
    533000   312.51299      0.016708652    2.5477389      775.35335     -41.236852      734.1165     
    534000   307.29167      0.016708652    6.0050261      762.39909     -37.354737      725.04436    
    535000   291.15999      0.016708652    6.3395209      722.37595     -31.732542      690.64341    
    536000   288.16062      0.016708652    7.5321847      714.93445     -28.385934      686.54852    
    537000   304.74867      0.016708652    18.288383      756.08984     -28.940027      727.14981    
    538000   316.95154      0.016708652    2.1989184      786.36551     -30.15949       756.20602    
    539000   289.95075      0.016708652    7.8049267      719.3758      -29.033893      690.3419     
    540000   304.90437      0.016708652    13.809713      756.47616     -27.983126      728.49303    
    541000   317.85022      0.016708652    5.6235063      788.59516     -29.599449      758.99572    
    542000   294.47092      0.016708652    7.4944007      730.59048     -27.394442      703.19604    
    543000   296.18221      0.016708652    8.5597554      734.83623     -29.570428      705.2658     
    544000   300.11834      0.016708652    13.346665      744.60187     -31.698808      712.90307    
    545000   307.35858      0.016708652    15.775779      762.56511     -30.386438      732.17867    
    546000   290.41932      0.016708652    7.6134865      720.53834     -32.970442      687.5679     
    547000   282.39476      0.016708652    6.9168611      700.62919     -32.608986      668.0202     
    548000   300.85028      0.016708652    11.278428      746.41783     -30.928791      715.48904    
    549000   303.38837      0.016708652    9.4876063      752.7149      -33.288787      719.42611    
    550000   294.75664      0.016708652    7.1829579      731.29935     -34.210508      697.08884    
    551000   294.56936      0.016708652    11.79567       730.8347      -39.029749      691.80495    
    552000   319.07313      0.016708652    9.798157       791.62924     -35.756785      755.87246    
    553000   292.76394      0.016708652    7.2287464      726.3554      -37.208591      689.14681    
    554000   288.1415       0.016708652    7.8528756      714.887       -36.970155      677.91684    
    555000   300.75589      0.016708652    8.8466915      746.18366     -34.63727       711.54639    
    556000   305.67435      0.016708652    9.3786007      758.38649     -34.378604      724.00789    
    557000   294.45541      0.016708652    9.5674385      730.552       -29.20442       701.34758    
    558000   298.76223      0.016708652    8.8792816      741.23733     -36.42744       704.80989    
    559000   300.24299      0.016708652    8.5370901      744.91112     -34.549784      710.36134    
    560000   308.01689      0.016708652    8.8243285      764.19839     -35.195184      729.0032     
    561000   284.03515      0.016708652    8.031515       704.69905     -36.955237      667.74381    
    562000   294.34039      0.016708652    9.1777663      730.26662     -35.329097      694.93752    
    563000   306.62197      0.016708652    11.121404      760.73755     -30.258956      730.4786     
    564000   296.6452       0.016708652   -0.76803664     735.98491     -35.274426      700.71048    
    565000   296.24268      0.016708652    9.6864523      734.98625     -29.576768      705.40948    
    566000   297.6884       0.016708652    14.327233      738.57313     -29.412843      709.16029    
    567000   305.73427      0.016708652    7.0999593      758.53516     -25.806025      732.72914    
    568000   296.98729      0.016708652    8.2436062      736.83366     -27.357914      709.47574    
    569000   284.04696      0.016708652    8.2650676      704.72835     -32.075286      672.65306    
    570000   298.02645      0.016708652    10.15797       739.41183     -31.749558      707.66227    
    571000   320.55751      0.016708652    9.4041165      795.31201     -33.838539      761.47347    
    572000   300.14314      0.016708652    9.242291       744.66342     -30.398152      714.26526    
    573000   297.50567      0.016708652    6.9246083      738.11977     -31.465065      706.6547     
    574000   302.27136      0.016708652    8.8286215      749.94358     -29.464675      720.4789     
    575000   301.33796      0.016708652    9.2283091      747.62779     -29.964727      717.66306    
    576000   299.81147      0.016708652    8.3567117      743.84052     -30.105578      713.73494    
    577000   308.16599      0.016708652    10.558314      764.56832     -28.755986      735.81233    
    578000   303.04442      0.016708652    13.027121      751.86155     -28.535573      723.32598    
    579000   295.72149      0.016708652    8.4045743      733.69318     -29.605611      704.08757    
    580000   296.32666      0.016708652    7.9012812      735.19462     -25.496586      709.69804    
    581000   312.40723      0.016708652    6.3414415      775.09095     -23.791347      751.2996     
    582000   317.86898      0.016708652    10.374605      788.64171     -25.799399      762.84231    
    583000   290.22353      0.016708652    9.5422773      720.05259     -20.649335      699.40325    
    584000   293.60048      0.016708652    8.1938264      728.43088     -21.910213      706.52066    
    585000   306.58098      0.016708652    9.0107642      760.63586     -22.933652      737.70221    
    586000   306.3603       0.016708652    9.0439238      760.08834     -25.167984      734.92035    
    587000   293.42354      0.016708652    9.0091992      727.9919      -22.026527      705.96537    
    588000   311.48283      0.016708652    8.3750232      772.79748     -22.342969      750.45451    
    589000   308.59163      0.016708652    9.5399143      765.62433     -28.925303      736.69903    
    590000   289.89519      0.016708652    13.947426      719.23796     -28.679005      690.55895    
    591000   283.13256      0.016708652    8.5822993      702.4597      -30.075601      672.38409    
    592000   292.73958      0.016708652    4.3315969      726.29497     -32.210621      694.08435    
    593000   311.51429      0.016708652    8.6419153      772.87554     -30.386535      742.48901    
    594000   321.92561      0.016708652    8.4538699      798.70632     -28.461418      770.2449     
    595000   294.39121      0.016708652    8.8967105      730.39271     -26.187059      704.20565    
    596000   299.77293      0.016708652    8.3282881      743.7449      -30.704018      713.04088    
    597000   305.7306       0.016708652    9.6893133      758.52606     -35.82591       722.70015    
    598000   297.51849      0.016708652    14.234795      738.15157     -33.840164      704.31141    
    599000   294.13724      0.016708652    4.5922543      729.76259     -33.522621      696.23997    
    600000   316.30807      0.016708652    9.1112154      784.76904     -34.367796      750.40125    
    601000   302.13997      0.016708652    11.153744      749.6176      -27.735241      721.88236    
    602000   274.7319       0.016708652    2.7383259      681.61741     -25.458302      656.15911    
    603000   300.70805      0.016708652    6.3823191      746.06495     -30.64277       715.42218    
    604000   303.53088      0.016708652    7.9069176      753.06847     -30.537749      722.53073    
    605000   306.6796       0.016708652    9.5624613      760.88054     -30.95908       729.92146    
    606000   295.13994      0.016708652    17.867196      732.25032     -34.044117      698.2062     
    607000   293.65591      0.016708652    16.338777      728.56841     -31.240257      697.32815    
    608000   298.78375      0.016708652    1.5970826      741.29073     -31.471469      709.81926    
    609000   307.54087      0.016708652    22.160031      763.01738     -33.271708      729.74567    
    610000   294.22911      0.016708652    3.8082448      729.99054     -39.718109      690.27244    
    611000   300.99893      0.016708652    8.7839158      746.78664     -30.61593       716.17071    
    612000   293.88121      0.016708652    13.717097      729.12739     -30.039845      699.08755    
    613000   299.72043      0.016708652    6.4405452      743.61466     -27.290203      716.32446    
    614000   310.36558      0.016708652    7.3947483      770.02555     -27.643331      742.38222    
    615000   303.59807      0.016708652    8.6918123      753.23518     -28.484217      724.75096    
    616000   298.69227      0.016708652    9.3259598      741.06376     -29.208819      711.85494    
    617000   298.25161      0.016708652    10.370673      739.97046     -24.67483       715.29563    
    618000   301.51577      0.016708652    8.4905752      748.06895     -21.252719      726.81623    
    619000   308.99362      0.016708652    0.85814585     766.62168     -27.613594      739.00808    
    620000   297.39256      0.016708652    13.136844      737.83915     -23.730981      714.10817    
    621000   307.01687      0.016708652    9.4287613      761.7173      -31.496153      730.22115    
    622000   293.9128       0.016708652    6.9895739      729.20575     -31.558619      697.64713    
    623000   303.44329      0.016708652    7.6546697      752.85117     -31.821744      721.02943    
    624000   301.7048       0.016708652    8.9585968      748.53791     -35.972018      712.5659     
    625000   291.45407      0.016708652    8.0351948      723.10559     -30.562327      692.54326    
    626000   295.58589      0.016708652    10.488755      733.35675     -25.869665      707.48709    
    627000   305.10006      0.016708652    8.7822693      756.96165     -25.136715      731.82494    
    628000   304.5169       0.016708652    7.5200027      755.51481     -22.408434      733.10638    
    629000   291.03578      0.016708652    8.2815631      722.06779     -20.759014      701.30877    
    630000   298.90258      0.016708652    10.260238      741.58555     -22.354391      719.23116    
    631000   304.63975      0.016708652    9.230285       755.81963     -26.863008      728.95662    
    632000   302.13727      0.016708652    9.6394213      749.6109      -28.636851      720.97405    
    633000   305.37724      0.016708652    9.1388454      757.64936     -25.995862      731.6535     
    634000   297.00441      0.016708652    9.5989252      736.87612     -26.773029      710.10309    
    635000   300.92487      0.016708652    9.408497       746.60291     -25.514869      721.08804    
    636000   308.94704      0.016708652    9.9670787      766.50613     -26.080693      740.42543    
    637000   296.38786      0.016708652    8.2557336      735.34645     -29.340259      706.00619    
    638000   294.64546      0.016708652    7.4285285      731.02351     -33.209091      697.81442    
    639000   312.03586      0.016708652    8.7018866      774.16956     -31.940456      742.22911    
    640000   303.04851      0.016708652    8.3690209      751.87171     -24.986856      726.88486    
    641000   290.43852      0.016708652    9.0619928      720.58597     -27.549415      693.03656    
    642000   309.79387      0.016708652    9.0327319      768.60714     -32.466316      736.14082    
    643000   303.78433      0.016708652    10.654485      753.69729     -29.031871      724.66542    
    644000   291.20857      0.016708652    10.179054      722.4965      -26.747918      695.74858    
    645000   296.91496      0.016708652    8.3438632      736.6542      -27.127819      709.52638    
    646000   307.92739      0.016708652    9.0742113      763.97634     -28.447721      735.52862    
    647000   296.80157      0.016708652    9.3043212      736.37288     -29.050832      707.32204    
    648000   301.31999      0.016708652    9.6632295      747.58321     -28.788966      718.79424    
    649000   299.9079       0.016708652    9.8533133      744.07978     -30.669825      713.40995    
    650000   306.62573      0.016708652    6.2433052      760.74688     -31.668149      729.07873    
    651000   303.58188      0.016708652    9.3868944      753.195       -26.142084      727.05292    
    652000   295.88173      0.016708652    9.2340615      734.09073     -27.604366      706.48636    
    653000   290.37481      0.016708652    7.7808264      720.42791     -29.497173      690.93073    
    654000   315.48405      0.016708652    9.7465928      782.72462     -25.954726      756.7699     
    655000   298.09714      0.016708652    9.1867645      739.58723     -31.649363      707.93787    
    656000   288.53575      0.016708652    9.7376255      715.86516     -29.019175      686.84599    
    657000   310.32946      0.016708652    8.0331053      769.93594     -32.249094      737.68685    
    658000   313.33295      0.016708652    11.047286      777.38767     -27.600474      749.7872     
    659000   292.89736      0.016708652    9.3463088      726.68643     -31.85053       694.8359     
    660000   299.58194      0.016708652    9.1320082      743.27106     -34.095282      709.17578    
    661000   301.1741       0.016708652    8.9812066      747.22125     -29.778988      717.44226    
    662000   302.10065      0.016708652    6.8785175      749.52004     -29.718881      719.80115    
    663000   299.31829      0.016708652    10.533022      742.61692     -29.421963      713.19495    
    664000   324.13938      0.016708652    9.833738       804.19874     -26.84217       777.35657    
    665000   302.68423      0.016708652    7.5035215      750.96791     -27.512704      723.4552     
    666000   286.81459      0.016708652    8.3187899      711.59491     -27.029327      684.56558    
    667000   305.02131      0.016708652    9.7959234      756.76627     -29.204763      727.56151    
    668000   309.90089      0.016708652    10.178478      768.87265     -30.619096      738.25356    
    669000   294.52802      0.016708652    8.4432207      730.73213     -31.301161      699.43096    
    670000   291.03915      0.016708652    10.064284      722.07615     -26.278359      695.79779    
    671000   303.36114      0.016708652    8.9628903      752.64735     -33.563822      719.08353    
    672000   307.56725      0.016708652    6.991557       763.08283     -31.538115      731.54472    
    673000   292.21668      0.016708652    16.171647      724.99764     -26.598553      698.39909    
    674000   302.24912      0.016708652    15.04738       749.88839     -25.680583      724.20781    
    675000   299.54395      0.016708652    7.6642241      743.17681     -27.431367      715.74544    
    676000   283.97529      0.016708652    10.91874       704.55052     -26.559484      677.99104    
    677000   301.32467      0.016708652    15.309377      747.59482     -31.102673      716.49214    
    678000   301.40673      0.016708652    6.9770597      747.7984      -23.756909      724.04149    
    679000   294.62905      0.016708652    6.9957494      730.9828      -23.39489       707.58791    
    680000   300.65533      0.016708652    10.935576      745.93415     -23.590416      722.34373    
    681000   303.41977      0.016708652    4.3038876      752.7928      -28.190753      724.60205    
    682000   301.02305      0.016708652    9.5842092      746.84649     -31.063619      715.78287    
    683000   311.08638      0.016708652    13.802708      771.81389     -32.580392      739.2335     
    684000   311.69507      0.016708652    2.4652973      773.32407     -32.881559      740.44251    
    685000   291.22359      0.016708652    9.0433341      722.53375     -34.563817      687.96994    
    686000   300.53634      0.016708652    12.403449      745.63894     -29.68667       715.95227    
    687000   310.56785      0.016708652    11.488672      770.52739     -29.78742       740.73997    
    688000   303.5498       0.016708652    4.850271       753.11543     -26.609709      726.50572    
    689000   287.62605      0.016708652    8.6600144      713.60817     -32.712426      680.89574    
    690000   298.05878      0.016708652    11.107118      739.49206     -28.187324      711.30473    
    691000   315.39288      0.016708652    6.8048001      782.49843     -29.507803      752.99063    
    692000   300.64026      0.016708652   -0.16042284     745.89678     -34.855446      711.04134    
    693000   296.3265       0.016708652    7.9966895      735.19422     -31.370308      703.82392    
    694000   293.42393      0.016708652    17.701669      727.99286     -29.23485       698.75801    
    695000   311.49354      0.016708652    5.8054303      772.82405     -30.944627      741.87943    
    696000   294.77621      0.016708652    10.318485      731.3479      -32.70195       698.64595    
    697000   307.07285      0.016708652    16.146645      761.85622     -34.035712      727.8205     
    698000   301.3143       0.016708652    5.6917662      747.56909     -32.355595      715.21349    
    699000   308.60172      0.016708652    6.066677       765.64937     -34.947171      730.7022     
    700000   300.08459      0.016708652    13.569577      744.51814     -32.901394      711.61674    
    701000   304.42515      0.016708652    9.5148096      755.28719     -31.61947       723.66772    
    702000   305.64102      0.016708652   -0.042867447    758.30379     -30.972392      727.3314     
    703000   295.2337       0.016708652    12.330612      732.48295     -27.187667      705.29528    
    704000   317.99631      0.016708652    12.655441      788.9576      -24.474331      764.48327    
    705000   300.34157      0.016708652    5.1486639      745.15571     -26.753715      718.40199    
    706000   293.41861      0.016708652    7.8829686      727.97967     -25.409719      702.56995    
    707000   296.60164      0.016708652    10.057937      735.87684     -25.996622      709.88022    
    708000   316.24032      0.016708652    10.177529      784.60095     -27.695222      756.90572    
    709000   304.11133      0.016708652    3.2692617      754.50859     -26.153131      728.35546    
    710000   289.45401      0.016708652    12.97729       718.14339     -29.351464      688.79193    
    711000   301.76404      0.016708652    11.90286       748.6849      -29.736472      718.94843    
    712000   303.9175       0.016708652    9.3227649      754.02771     -32.186143      721.84156    
    713000   304.69629      0.016708652    5.2278636      755.9599      -30.161176      725.79873    
    714000   292.43773      0.016708652    5.8853952      725.54608     -29.642527      695.90355    
    715000   310.06144      0.016708652    15.056888      769.27098     -31.348701      737.92228    
    716000   315.70243      0.016708652    11.985605      783.26643     -28.618233      754.6482     
    717000   286.85371      0.016708652    7.433804       711.69196     -27.083457      684.6085     
    718000   283.26471      0.016708652    7.4975989      702.78755     -30.153079      672.63447    
    719000   303.04457      0.016708652    10.407251      751.86194     -31.720519      720.14142    
    720000   298.737        0.016708652    9.9502198      741.17474     -30.335779      710.83896    
    721000   303.16203      0.016708652    14.25761       752.15335     -38.10907       714.04428    
    722000   301.44675      0.016708652    7.0967404      747.89769     -34.562377      713.33531    
    723000   287.85359      0.016708652    2.5248235      714.1727      -30.090754      684.08195    
    724000   292.91833      0.016708652    13.412292      726.73844     -28.299457      698.43899    
[...]
   3823000   310.63513      0.016708652    22.025462      770.69432     -30.758416      739.9359     
   3824000   305.02737      0.016708652    0.78917291     756.78132     -31.530055      725.25126    
   3825000   287.76365      0.016708652    8.2870215      713.94954     -33.190451      680.75909    
   3826000   294.78456      0.016708652    21.324362      731.36862     -31.769995      699.59862    
   3827000   308.63236      0.016708652    12.918         765.7254      -30.937718      734.78768    
   3828000   307.0737       0.016708652    0.28933971     761.85832     -29.892746      731.96558    
   3829000   285.62256      0.016708652    1.6496217      708.63744     -31.57142       677.06602    
   3830000   301.40008      0.016708652    11.79911       747.78189     -28.004715      719.77718    
   3831000   295.76072      0.016708652    12.941032      733.79051     -30.869135      702.92137    
   3832000   301.08608      0.016708652    4.7268142      747.00286     -30.615938      716.38692    
   3833000   294.15454      0.016708652    4.3469039      729.80553     -28.825009      700.98052    
   3834000   304.25559      0.016708652    13.84566       754.86652     -28.95625       725.91027    
   3835000   297.21309      0.016708652    6.1015659      737.39386     -28.207108      709.18675    
   3836000   291.539        0.016708652    4.6471775      723.3163      -26.962014      696.35428    
   3837000   306.59443      0.016708652    7.3608638      760.66922     -24.779419      735.8898     
   3838000   300.85635      0.016708652    14.614844      746.43289     -21.57351       724.85938    
   3839000   301.63118      0.016708652    7.4125761      748.35528     -23.189125      725.16615    
   3840000   294.14454      0.016708652    7.5754991      729.78071     -22.260478      707.52024    
   3841000   305.4097       0.016708652    15.661866      757.72988     -25.089679      732.6402     
   3842000   302.03513      0.016708652    10.660835      749.35748     -28.392763      720.96471    
   3843000   292.83518      0.016708652    0.77607229     726.53214     -29.151752      697.38039    
   3844000   292.35517      0.016708652    7.143451       725.34124     -30.253254      695.08799    
   3845000   294.07453      0.016708652    8.5365095      729.60702     -32.268745      697.33827    
   3846000   306.57125      0.016708652    11.473015      760.61171     -30.837082      729.77463    
   3847000   298.38188      0.016708652    4.0979934      740.29367     -34.448466      705.84521    
   3848000   290.84468      0.016708652    12.462373      721.59366     -28.834039      692.75962    
   3849000   322.95977      0.016708652    10.002562      801.27209     -31.213417      770.05867    
   3850000   308.06374      0.016708652    6.8752753      764.31463     -30.544541      733.77009    
   3851000   302.57642      0.016708652    7.2131007      750.70043     -29.980071      720.72036    
   3852000   297.53161      0.016708652    11.341914      738.18412     -29.775076      708.40904    
   3853000   310.42459      0.016708652    4.1548936      770.17196     -29.329343      740.84262    
   3854000   293.07166      0.016708652    7.4733011      727.11887     -29.504572      697.6143     
   3855000   291.029        0.016708652    11.212227      722.05097     -25.956514      696.09445    
   3856000   307.77673      0.016708652    9.7501133      763.60256     -31.991213      731.61135    
   3857000   303.7496       0.016708652    9.6236656      753.61112     -33.666342      719.94478    
   3858000   289.35429      0.016708652    9.5294683      717.89596     -32.368067      685.52789    
   3859000   305.18298      0.016708652    12.99461       757.16739     -34.852399      722.31499    
   3860000   307.50475      0.016708652    9.1176382      762.92776     -31.503976      731.42379    
   3861000   296.95309      0.016708652    8.663501       736.7488      -34.221692      702.52711    
   3862000   286.91308      0.016708652    8.571122       711.83926     -33.579729      678.25953    
   3863000   312.9449       0.016708652    9.450176       776.42492     -31.003343      745.42158    
   3864000   307.86668      0.016708652    9.1625811      763.82571     -32.901598      730.92411    
   3865000   296.91829      0.016708652    7.8755575      736.66245     -27.008798      709.65366    
   3866000   287.35957      0.016708652    8.5374381      712.94702     -35.093016      677.85401    
   3867000   296.67831      0.016708652    10.639199      736.06707     -30.250827      705.81625    
   3868000   299.63957      0.016708652    9.9019476      743.41404     -32.672221      710.74182    
   3869000   308.35901      0.016708652    11.166632      765.04721     -29.80387       735.24334    
   3870000   292.63851      0.016708652    8.1330461      726.04421     -33.890089      692.15412    
   3871000   298.17776      0.016708652    7.7376441      739.78725     -29.350286      710.43696    
   3872000   315.01726      0.016708652    9.7204372      781.5665      -32.34013       749.22637    
   3873000   291.69286      0.016708652    9.9234554      723.69801     -29.176199      694.52182    
   3874000   303.73625      0.016708652    6.8994199      753.57802     -31.8013        721.77672    
   3875000   301.26951      0.016708652    9.4025744      747.45797     -32.104814      715.35315    
   3876000   285.50212      0.016708652    9.5605528      708.33863     -38.503539      669.83509    
   3877000   297.148        0.016708652    6.2283757      737.23237     -36.572452      700.65992    
   3878000   318.67609      0.016708652    11.657108      790.64416     -34.911775      755.73239    
   3879000   305.03837      0.016708652    9.3832409      756.80861     -32.386984      724.42163    
   3880000   298.4702       0.016708652    2.5036934      740.51279     -36.058423      704.45436    
   3881000   296.46025      0.016708652    9.9169451      735.52604     -34.447144      701.0789     
   3882000   307.92933      0.016708652    14.332148      763.98116     -37.211626      726.76954    
   3883000   307.65058      0.016708652    7.0350726      763.28957     -31.970336      731.31924    
   3884000   308.53635      0.016708652    9.028965       765.48719     -28.910844      736.57635    
   3885000   295.4075       0.016708652    11.004533      732.91415     -29.198777      703.71537    
   3886000   304.15294      0.016708652    12.203664      754.61182     -28.893938      725.71789    
   3887000   293.37544      0.016708652    5.4923202      727.87256     -31.472449      696.40011    
   3888000   309.2685       0.016708652    9.8029631      767.30367     -31.584152      735.71952    
   3889000   290.43622      0.016708652    9.3078344      720.58027     -34.619524      685.96075    
   3890000   301.19291      0.016708652    10.812908      747.26791     -28.501232      718.76668    
   3891000   312.70835      0.016708652    11.140206      775.83803     -27.190103      748.64793    
   3892000   305.47894      0.016708652    10.152913      757.90168     -28.89519       729.00649    
   3893000   296.60316      0.016708652    9.8028528      735.88061     -24.569877      711.31074    
   3894000   289.30549      0.016708652    8.1980925      717.7749      -25.880913      691.89399    
   3895000   308.4009       0.016708652    6.9714143      765.15112     -23.144109      742.00701    
   3896000   303.03325      0.016708652    8.0292227      751.83385     -21.632103      730.20175    
   3897000   293.05192      0.016708652    8.9308569      727.06989     -24.67413       702.39576    
   3898000   301.28681      0.016708652    11.50301       747.50089     -21.662131      725.83876    
   3899000   299.31585      0.016708652    4.3641228      742.61086     -25.341078      717.26979    
   3900000   300.35716      0.016708652    8.8767623      745.1944      -25.982379      719.21202    
   3901000   292.29571      0.016708652    3.7952528      725.19371     -25.171125      700.02258    
   3902000   307.14637      0.016708652    7.088165       762.03861     -28.312273      733.72633    
   3903000   313.85212      0.016708652    14.903703      778.67576     -25.704116      752.97164    
   3904000   309.01309      0.016708652    12.399925      766.67        -26.569684      740.10031    
   3905000   288.67058      0.016708652    4.1987517      716.19967     -25.475164      690.72451    
   3906000   301.41884      0.016708652    5.0162533      747.82846     -25.179983      722.64848    
   3907000   317.41163      0.016708652    8.9980259      787.507       -23.992178      763.51482    
   3908000   293.77522      0.016708652    10.932289      728.86442     -23.042938      705.82148    
   3909000   285.58256      0.016708652    9.1292709      708.53821     -26.312204      682.22601    
   3910000   306.50592      0.016708652   -4.624371       760.44963     -29.179098      731.27053    
   3911000   303.42552      0.016708652    8.0098902      752.80707     -28.587476      724.2196     
   3912000   302.18327      0.016708652    8.874688       749.72503     -31.784558      717.94047    
   3913000   290.91788      0.016708652    12.412072      721.77527     -28.416168      693.3591     
   3914000   306.00537      0.016708652   -1.435631       759.20777     -24.984031      734.22374    
   3915000   305.88677      0.016708652    8.5254237      758.91352     -27.314365      731.59915    
   3916000   299.17618      0.016708652    14.537097      742.26434     -27.582249      714.68209    
   3917000   293.0986       0.016708652    9.7328874      727.18569     -28.592526      698.59317    
   3918000   297.44763      0.016708652    7.1899967      737.97578     -34.107677      703.8681     
   3919000   300.02768      0.016708652    5.0900747      744.37694     -30.930265      713.44667    
   3920000   304.27204      0.016708652    8.6459143      754.90731     -31.720879      723.18643    
   3921000   295.22236      0.016708652    13.404746      732.45481     -33.448784      699.00602    
   3922000   299.25221      0.016708652    7.305282       742.45298     -30.393444      712.05954    
   3923000   305.04398      0.016708652    6.8235843      756.82252     -27.173443      729.64908    
   3924000   304.40667      0.016708652    10.287636      755.24135     -26.510862      728.73049    
   3925000   304.62349      0.016708652    10.049383      755.77927     -30.430532      725.34873    
   3926000   282.78701      0.016708652    10.020744      701.60237     -30.57416       671.02821    
   3927000   283.97909      0.016708652    6.3428855      704.55996     -30.827685      673.73227    
   3928000   310.22432      0.016708652    8.4125745      769.67508     -32.04005       737.63503    
   3929000   313.85507      0.016708652    14.882965      778.68308     -32.009885      746.67319    
   3930000   293.80698      0.016708652    10.047535      728.94322     -29.442318      699.50091    
   3931000   289.68485      0.016708652    1.507517       718.7161      -32.400082      686.31602    
   3932000   311.47342      0.016708652    9.1765556      772.77413     -33.24814       739.52599    
   3933000   309.21584      0.016708652    12.99522       767.17303     -31.372621      735.80041    
   3934000   297.02681      0.016708652    13.22179       736.93169     -31.873409      705.05828    
   3935000   291.1815       0.016708652    9.2689372      722.42932     -26.542881      695.88644    
   3936000   291.85744      0.016708652    8.0705118      724.10635     -28.064345      696.042      
   3937000   311.97972      0.016708652    9.8291259      774.03029     -26.46042       747.56987    
   3938000   308.71904      0.016708652    9.3090099      765.94045     -24.474877      741.46557    
   3939000   299.05405      0.016708652    14.421085      741.96134     -27.654122      714.30722    
   3940000   283.23998      0.016708652    8.7425594      702.72621     -27.65317       675.07304    
   3941000   314.88388      0.016708652    8.8981948      781.23558     -24.935668      756.29991    
   3942000   304.30067      0.016708652    10.267121      754.97834     -28.010386      726.96795    
   3943000   300.38143      0.016708652    14.566846      745.2546      -24.754134      720.50047    
   3944000   298.72726      0.016708652    6.1203636      741.15056     -27.609568      713.54099    
   3945000   296.61185      0.016708652    7.3969075      735.90218     -22.765026      713.13716    
   3946000   300.08669      0.016708652    4.5086919      744.52336     -27.08337       717.43999    
   3947000   306.15944      0.016708652    24.197461      759.59001     -30.513397      729.07661    
   3948000   307.66353      0.016708652    9.6240946      763.32171     -30.453919      732.86779    
   3949000   307.77831      0.016708652   -2.366529       763.60647     -26.238726      737.36774    
   3950000   295.40694      0.016708652    7.5374059      732.91276     -25.00023       707.91253    
   3951000   298.96953      0.016708652    17.634033      741.75164     -26.031767      715.71987    
   3952000   295.0546       0.016708652    5.1574235      732.0386      -24.958424      707.08018    
   3953000   292.50616      0.016708652    7.1918623      725.71584     -27.595906      698.11994    
   3954000   304.34445      0.016708652    12.522994      755.08698     -30.773694      724.31328    
   3955000   301.67403      0.016708652    8.8802306      748.46158     -29.863029      718.59855    
   3956000   289.57086      0.016708652    8.6666771      718.43329     -30.730464      687.70282    
   3957000   298.86569      0.016708652    8.7494177      741.49401     -26.879667      714.61434    
   3958000   314.61064      0.016708652    11.187157      780.55768     -26.972361      753.58532    
   3959000   299.33549      0.016708652    12.627289      742.65961     -26.020115      716.63949    
   3960000   287.82296      0.016708652    9.0455432      714.0967      -25.418571      688.67813    
   3961000   296.91471      0.016708652    6.0905944      736.65357     -26.562849      710.09072    
   3962000   314.60389      0.016708652    7.2171997      780.54092     -28.627073      751.91385    
   3963000   321.4957       0.016708652    9.9090861      797.63968     -24.704279      772.9354     
   3964000   298.3475       0.016708652    8.7543601      740.20836     -30.317864      709.8905     
   3965000   285.46045      0.016708652    8.9012654      708.23523     -26.430543      681.80469    
   3966000   297.77281      0.016708652    8.3291963      738.78255     -32.710153      706.07239    
   3967000   304.81915      0.016708652    8.6946527      756.26472     -28.071169      728.19355    
   3968000   297.36994      0.016708652    7.0921357      737.78303     -27.710973      710.07206    
   3969000   302.98425      0.016708652    10.872011      751.71228     -25.566444      726.14584    
   3970000   304.51473      0.016708652    10.755612      755.50944     -25.049542      730.45989    
   3971000   296.39403      0.016708652    5.958839       735.36176     -20.860401      714.50136    
   3972000   298.05996      0.016708652    7.9878787      739.49497     -19.30062       720.19435    
   3973000   301.56695      0.016708652    15.499919      748.1959      -21.662998      726.53291    
   3974000   297.52326      0.016708652    6.3550236      738.16341     -28.637749      709.52566    
   3975000   302.13462      0.016708652    14.153373      749.60433     -28.491872      721.11246    
   3976000   311.56333      0.016708652    10.686916      772.99721     -29.984866      743.01235    
   3977000   300.71146      0.016708652    3.5000645      746.07343     -29.715158      716.35827    
   3978000   292.77795      0.016708652    12.558065      726.39017     -28.497192      697.89297    
   3979000   294.04596      0.016708652    11.06404       729.53614     -26.023724      703.51242    
   3980000   317.98709      0.016708652    12.403188      788.93473     -26.913604      762.02112    
   3981000   297.14331      0.016708652    5.9802146      737.22074     -27.503174      709.71756    
   3982000   288.35978      0.016708652    14.791166      715.42857     -28.581073      686.8475     
   3983000   296.82586      0.016708652    17.534595      736.43315     -23.121124      713.31203    
   3984000   312.15052      0.016708652    9.3068574      774.45404     -24.128085      750.32595    
   3985000   298.52605      0.016708652    4.8267856      740.65137     -27.985174      712.66619    
   3986000   293.11865      0.016708652    10.155236      727.23544     -26.284388      700.95105    
   3987000   302.92719      0.016708652    11.328527      751.57071     -25.366951      726.20376    
   3988000   298.87391      0.016708652    6.1102163      741.51441     -28.182646      713.33176    
   3989000   294.92139      0.016708652    11.356096      731.7081      -20.535123      711.17298    
   3990000   296.31047      0.016708652    15.010515      735.15444     -23.866768      711.28767    
   3991000   309.06082      0.016708652    6.4188091      766.78841     -27.866933      738.92148    
   3992000   292.37351      0.016708652    1.4421716      725.38674     -21.89354       703.4932     
   3993000   302.07727      0.016708652    15.130972      749.46204     -25.708676      723.75337    
   3994000   297.18371      0.016708652    9.5848637      737.32097     -23.838376      713.4826     
   3995000   299.30228      0.016708652    6.4801799      742.57721     -24.111828      718.46538    
   3996000   313.00194      0.016708652    6.3483425      776.56643     -24.571655      751.99478    
   3997000   286.40366      0.016708652    16.770981      710.57539     -19.771852      690.80353    
   3998000   302.45557      0.016708652    8.4566311      750.40061     -24.260691      726.13992    
   3999000   315.29917      0.016708652    3.2371868      782.26593     -26.254942      756.01098    
   4000000   297.29909      0.016708652    5.7947151      737.60724     -26.472474      711.13476    
Loop time of 6861.22 on 1 procs for 4000000 steps with 1500 atoms

Performance: 12.593 ns/day, 1.906 hours/ns, 582.987 timesteps/s, 874.480 katom-step/s
100.0% CPU use with 1 MPI tasks x 1 OpenMP threads

MPI task timing breakdown:
Section |  min time  |  avg time  |  max time  |%varavg| %total
---------------------------------------------------------------
Pair    | 687.25     | 687.25     | 687.25     |   0.0 | 10.02
Bond    | 89.283     | 89.283     | 89.283     |   0.0 |  1.30
Kspace  | 5574.6     | 5574.6     | 5574.6     |   0.0 | 81.25
Neigh   | 0.027797   | 0.027797   | 0.027797   |   0.0 |  0.00
Comm    | 18.491     | 18.491     | 18.491     |   0.0 |  0.27
Output  | 0.086679   | 0.086679   | 0.086679   |   0.0 |  0.00
Modify  | 478.73     | 478.73     | 478.73     |   0.0 |  6.98
Other   |            | 12.79      |            |       |  0.19

Nlocal:           1500 ave        1500 max        1500 min
Histogram: 1 0 0 0 0 0 0 0 0 0
Nghost:           1133 ave        1133 max        1133 min
Histogram: 1 0 0 0 0 0 0 0 0 0
Neighs:              0 ave           0 max           0 min
Histogram: 1 0 0 0 0 0 0 0 0 0

Total # of neighbors = 0
Ave neighs/atom = 0
Ave special neighs/atom = 2
Neighbor list builds = 17174
Dangerous builds = 0
write_data	last_conf.data pair ij
System init for write_data ...
PPPM initialization ...
  using 12-bit tables for long-range coulomb (src/kspace.cpp:342)
  G vector (1/distance) = 0.16409079
  grid = 27 27 27
  stencil order = 5
  estimated absolute RMS force accuracy = 0.036022981
  estimated relative force accuracy = 0.00010848214
  using double precision FFTW3
  3d grid and FFT values/proc = 32768 19683
Generated 1 of 1 mixed pair_coeff terms from arithmetic mixing rule
Total wall time: 1:54:21
