LAMMPS data file via write_data, version 29 Aug 2024, timestep = 0, units = real

1500 atoms
2 atom types
1000 bonds
1 bond types
500 angles
1 angle types

0 170 xlo xhi
0 170 ylo yhi
0 170 zlo zhi

Masses

1 12.0107
2 15.9994

PairIJ Coeffs # lj/cut/coul/long/gpu

1 1 0.053649 2.8 12
1 2 0.0917684 2.925 12
2 2 0.156973 3.05 12

Bond Coeffs # harmonic

1 0 1.16

Angle Coeffs # harmonic

1 0 180

Atoms # full

1 1 1 0.7 12.52503413824599 48.24876150034776 16.934536344806915 0 0 0
2 1 2 -0.35 11.517373394003775 48.48644752598132 16.411348828010357 0 0 0
3 1 2 -0.35 13.532694882488206 48.011075474714204 17.457723861603473 0 0 0
4 2 1 0.7 38.752347169794305 40.69888273286581 116.12209127569669 0 0 0
5 2 2 -0.35 39.099667025923885 41.19944982367802 115.13497349896794 0 0 0
6 2 2 -0.35 38.405027313664725 40.1983156420536 117.10920905242544 0 0 0
7 3 1 0.7 63.98807063418817 27.503148800462085 15.421889366312831 0 0 0
8 3 2 -0.35 63.525461779235194 26.439385585625576 15.420956585636798 0 0 0
9 3 2 -0.35 64.45067948914115 28.566912015298595 15.422822146988864 0 0 0
10 4 1 0.7 115.69457961977207 18.799669509194636 106.04544103427112 0 0 0
11 4 2 -0.35 114.60952030201307 18.998713447345796 106.40408819741289 0 0 0
12 4 2 -0.35 116.77963893753108 18.600625571043476 105.68679387112935 0 0 0
13 5 1 0.7 25.727462994739167 91.47055258111588 35.5772308146475 0 0 0
14 5 2 -0.35 25.554804219694745 91.75553103063612 36.68834567401588 0 0 0
15 5 2 -0.35 25.90012176978359 91.18557413159564 34.46611595527912 0 0 0
16 6 1 0.7 56.51830178057696 113.09802615693678 68.52561963653454 0 0 0
17 6 2 -0.35 55.43082759618755 113.27158580212703 68.16109673211288 0 0 0
18 6 2 -0.35 57.60577596496638 112.92446651174653 68.8901425409562 0 0 0
19 7 1 0.7 130.08923123594803 39.70938257859525 145.59299845043245 0 0 0
20 7 2 -0.35 129.06785863638288 39.97205869484258 145.1098843119406 0 0 0
21 7 2 -0.35 131.1106038355132 39.446706462347926 146.0761125889243 0 0 0
22 8 1 0.7 1.5249564179801178 129.94251699184184 123.88308188593159 0 0 0
23 8 2 -0.35 1.0500630182504143 130.95994927366522 124.17447133460266 0 0 0
24 8 2 -0.35 1.9998498177098214 128.92508471001847 123.59169243726052 0 0 0
25 9 1 0.7 112.95725685216358 82.61591431340943 135.67186547241727 0 0 0
26 9 2 -0.35 112.6164998491148 83.32793288856315 134.82185711157058 0 0 0
27 9 2 -0.35 113.29801385521236 81.90389573825571 136.52187383326395 0 0 0
28 10 1 0.7 27.04299491692474 101.61556875408422 32.864049893274924 0 0 0
29 10 2 -0.35 27.049574226899086 100.65602677986696 33.51584427219784 0 0 0
30 10 2 -0.35 27.036415606950396 102.57511072830148 32.21225551435201 0 0 0
31 11 1 0.7 16.086556271690203 66.75125829724188 58.39820174425757 0 0 0
32 11 2 -0.35 15.692145300137657 66.72208021839421 59.488700999293414 0 0 0
33 11 2 -0.35 16.48096724324275 66.78043637608954 57.307702489221725 0 0 0
34 12 1 0.7 88.57671573691849 18.86139038897184 123.38826744974976 0 0 0
35 12 2 -0.35 87.65737695829172 19.54479868025343 123.5709401557587 0 0 0
36 12 2 -0.35 89.49605451554525 18.177982097690254 123.20559474374082 0 0 0
37 13 1 0.7 126.61102794418625 61.54665793829908 134.67996899256482 0 0 0
38 13 2 -0.35 126.69599812100839 60.39581538029061 134.56189496609272 0 0 0
39 13 2 -0.35 126.52605776736411 62.69750049630755 134.79804301903692 0 0 0
40 14 1 0.7 16.23885803680814 76.48702463437199 147.42302989001527 0 0 0
41 14 2 -0.35 15.537838631299081 76.1461926886275 148.2821022838563 0 0 0
42 14 2 -0.35 16.939877442317197 76.82785658011649 146.56395749617425 0 0 0
43 15 1 0.7 158.86336148663582 166.51650588797241 102.914459152573 0 0 0
44 15 2 -0.35 158.076724409422 166.52262085613262 102.06195418724029 0 0 0
45 15 2 -0.35 159.64999856384964 166.5103909198122 103.76696411790572 0 0 0
46 16 1 0.7 103.31497729444642 34.823387761052416 136.67810000790195 0 0 0
47 16 2 -0.35 102.16544999082552 34.67321243765687 136.6376729071761 0 0 0
48 16 2 -0.35 104.46450459806732 34.97356308444796 136.7185271086278 0 0 0
49 17 1 0.7 108.82683280800788 22.579004188337834 45.32339339392418 0 0 0
50 17 2 -0.35 107.85510633803058 23.150692958181775 45.59637621019616 0 0 0
51 17 2 -0.35 109.79855927798518 22.007315418493892 45.050410577652194 0 0 0
52 18 1 0.7 150.27277168364859 114.47368708181833 69.25878412055727 0 0 0
53 18 2 -0.35 149.45713314676013 115.09547253526327 68.71682782432416 0 0 0
54 18 2 -0.35 151.08841022053704 113.85190162837338 69.80074041679038 0 0 0
55 19 1 0.7 42.384714205928475 59.891659039953566 29.11348449956322 0 0 0
56 19 2 -0.35 42.20497356742049 60.203277641708176 28.010675744651813 0 0 0
57 19 2 -0.35 42.56445484443646 59.58004043819896 30.21629325447463 0 0 0
58 20 1 0.7 50.333984159088686 43.27176180354867 8.500632242532742 0 0 0
59 20 2 -0.35 51.254443285519564 43.20706992711913 9.203604473630193 0 0 0
60 20 2 -0.35 49.41352503265781 43.33645367997821 7.7976600114352905 0 0 0
61 21 1 0.7 70.12610024778456 169.36686451517366 68.89190652356106 0 0 0
62 21 2 -0.35 70.93573691891362 168.6383940301399 69.29117988004472 0 0 0
63 21 2 -0.35 69.31646357665551 0.09533500020742736 68.4926331670774 0 1 0
64 22 1 0.7 166.27294149076238 89.32763524322195 59.56553283127282 0 0 0
65 22 2 -0.35 165.34763647823257 88.64326184128849 59.420468430011766 0 0 0
66 22 2 -0.35 167.19824650329218 90.0120086451554 59.71059723253387 0 0 0
67 23 1 0.7 157.91029520235503 128.33146598112373 76.94874474636687 0 0 0
68 23 2 -0.35 158.6729339476015 128.9311775215089 76.31287666839964 0 0 0
69 23 2 -0.35 157.14765645710855 127.73175444073856 77.5846128243341 0 0 0
70 24 1 0.7 87.55295218785896 152.46742134563038 109.95055600998484 0 0 0
71 24 2 -0.35 86.73351447269903 153.2072981599537 110.30651124677769 0 0 0
72 24 2 -0.35 88.3723899030189 151.72754453130707 109.59460077319198 0 0 0
73 25 1 0.7 38.99485981510713 36.60891250549299 55.99247982073225 0 0 0
74 25 2 -0.35 37.951039148178936 36.125546246860864 55.8428286419545 0 0 0
75 25 2 -0.35 40.03868048203532 37.09227876412511 56.14213099951 0 0 0
76 26 1 0.7 115.60834704693796 99.48881788621136 158.56221355430887 0 0 0
77 26 2 -0.35 114.52728090352058 99.78572621123334 158.26431853909494 0 0 0
78 26 2 -0.35 116.68941319035535 99.19190956118939 158.8601085695228 0 0 0
79 27 1 0.7 35.12320726882816 75.74456719483462 78.9408435853854 0 0 0
80 27 2 -0.35 34.276522647764075 75.6703306223616 78.15140449098924 0 0 0
81 27 2 -0.35 35.969891889892246 75.81880376730763 79.73028267978155 0 0 0
82 28 1 0.7 78.75813957245934 68.05179432409433 156.5072050534688 0 0 0
83 28 2 -0.35 77.92784284315556 68.60634663651066 157.09769559031182 0 0 0
84 28 2 -0.35 79.58843630176312 67.497242011678 155.91671451662577 0 0 0
85 29 1 0.7 6.5953336500540996 7.772656459255449 75.0371107063429 0 0 0
86 29 2 -0.35 5.435960975212555 7.797450283432137 75.06609806761392 0 0 0
87 29 2 -0.35 7.754706324895644 7.747862635078762 75.00812334507188 0 0 0
88 30 1 0.7 88.71964150514437 41.01477696141916 155.35639057185332 0 0 0
89 30 2 -0.35 87.79981601580805 41.06381127344763 154.65132553555446 0 0 0
90 30 2 -0.35 89.63946699448069 40.96574264939069 156.0614556081522 0 0 0
91 31 1 0.7 44.85634113888086 120.52552117059264 122.43431415056544 0 0 0
92 31 2 -0.35 45.16852128051481 119.53997915821469 121.90814830122947 0 0 0
93 31 2 -0.35 44.544160997246905 121.51106318297059 122.96047999990141 0 0 0
94 32 1 0.7 73.51792855352066 55.82519902187642 24.11996067693455 0 0 0
95 32 2 -0.35 72.72655727905656 54.977744273700125 24.086020203359205 0 0 0
96 32 2 -0.35 74.30929982798476 56.67265377005272 24.153901150509896 0 0 0
97 33 1 0.7 104.17909723901148 108.08729606591504 3.1849798342143094 0 0 0
98 33 2 -0.35 103.03796572691981 107.92393030428931 3.314326268412578 0 0 0
99 33 2 -0.35 105.32022875110316 108.25066182754077 3.055633400016041 0 0 0
100 34 1 0.7 149.95607363989396 61.72966569742638 150.49137664516056 0 0 0
101 34 2 -0.35 148.95745601661596 61.67725807857255 149.9034852572625 0 0 0
102 34 2 -0.35 150.95469126317195 61.782073316280204 151.0792680330586 0 0 0
103 35 1 0.7 48.56727521334182 100.19451063601045 119.14025942754944 0 0 0
104 35 2 -0.35 47.42106365261596 100.37271272667475 119.13369642966246 0 0 0
105 35 2 -0.35 49.71348677406768 100.01630854534615 119.14682242543641 0 0 0
106 36 1 0.7 130.34019882340925 7.721625039224338 67.3520342434533 0 0 0
107 36 2 -0.35 129.35956602615278 7.1667768453230964 67.62790160047375 0 0 0
108 36 2 -0.35 131.32083162066573 8.27647323312558 67.07616688643286 0 0 0
109 37 1 0.7 125.63952971978091 53.5760003577806 131.83801321864036 0 0 0
110 37 2 -0.35 124.48032305647696 53.57342135350621 131.79519662736232 0 0 0
111 37 2 -0.35 126.79873638308486 53.57857936205499 131.8808298099184 0 0 0
112 38 1 0.7 21.48816568846263 71.60072599146548 133.40173856047994 0 0 0
113 38 2 -0.35 21.531153797440332 72.21000817617147 132.41557060222615 0 0 0
114 38 2 -0.35 21.445177579484927 70.99144380675949 134.38790651873373 0 0 0
115 39 1 0.7 123.01998598641714 56.904473713089 143.4896958868437 0 0 0
116 39 2 -0.35 122.23139912201373 56.18990272119512 143.02804769304868 0 0 0
117 39 2 -0.35 123.80857285082055 57.619044704982876 143.9513440806387 0 0 0
118 40 1 0.7 11.318770182001764 4.57044890363256 145.5347233524242 0 0 0
119 40 2 -0.35 11.067091922510398 4.61102979454441 146.66636430475504 0 0 0
120 40 2 -0.35 11.570448441493129 4.529868012720709 144.40308240009338 0 0 0
121 41 1 0.7 42.09538419362874 127.12214231822739 151.84594244782159 0 0 0
122 41 2 -0.35 41.574351762888675 127.87486359223045 151.1335269161406 0 0 0
123 41 2 -0.35 42.6164166243688 126.36942104422432 152.55835797950257 0 0 0
124 42 1 0.7 34.754720537343395 2.5880711304899635 147.71149014481878 0 0 0
125 42 2 -0.35 33.612100207201685 2.421590647414551 147.8224091688941 0 0 0
126 42 2 -0.35 35.897340867485106 2.754551613565376 147.60057112074347 0 0 0
127 43 1 0.7 77.01486396929941 8.818732015238485 146.42898011320688 0 0 0
128 43 2 -0.35 78.11992354130692 8.876498322406478 146.08097667059351 0 0 0
129 43 2 -0.35 75.90980439729191 8.760965708070492 146.77698355582024 0 0 0
130 44 1 0.7 111.86876266816107 148.29416378321784 10.010704542515196 0 0 0
131 44 2 -0.35 111.24798381250666 149.17648558993343 9.584392635847658 0 0 0
132 44 2 -0.35 112.48954152381548 147.41184197650225 10.437016449182734 0 0 0
133 45 1 0.7 119.91124605290183 168.3124111212382 26.693714650670866 0 0 0
134 45 2 -0.35 118.789281463501 168.08041780384582 26.875303639367626 0 0 0
135 45 2 -0.35 121.03321064230266 168.54440443863058 26.512125661974107 0 0 0
136 46 1 0.7 11.26213382522675 72.683200585974 136.55224846515443 0 0 0
137 46 2 -0.35 10.954384952778504 72.34047144164421 137.61687392283136 0 0 0
138 46 2 -0.35 11.569882697674995 73.0259297303038 135.4876230074775 0 0 0
139 47 1 0.7 33.63995385060085 136.7043670484351 40.29698304845811 0 0 0
140 47 2 -0.35 32.91634391284627 136.85262680849894 41.19141454473305 0 0 0
141 47 2 -0.35 34.36356378835542 136.55610728837127 39.40255155218317 0 0 0
142 48 1 0.7 161.39409543545642 30.56198371600452 85.26031488797643 0 0 0
143 48 2 -0.35 160.38404708815864 29.99700618145593 85.33907224684799 0 0 0
144 48 2 -0.35 162.4041437827542 31.12696125055311 85.18155752910488 0 0 0
145 49 1 0.7 40.11232221969977 117.79954649405533 36.97792558790088 0 0 0
146 49 2 -0.35 40.29249399091566 116.9088120775115 36.25700233814315 0 0 0
147 49 2 -0.35 39.93215044848388 118.69028091059917 37.6988488376586 0 0 0
148 50 1 0.7 137.99535585008346 147.94577235260317 104.59593020127896 0 0 0
149 50 2 -0.35 137.32556373469242 147.153152337352 105.1143239064715 0 0 0
150 50 2 -0.35 138.6651479654745 148.73839236785435 104.07753649608642 0 0 0
151 51 1 0.7 143.79889289559745 107.99289630632516 116.60822040709118 0 0 0
152 51 2 -0.35 142.97498312893637 108.5478349323777 117.20723277567419 0 0 0
153 51 2 -0.35 144.62280266225852 107.43795768027263 116.00920803850818 0 0 0
154 52 1 0.7 74.36038198152575 104.9399635032471 145.9665990741768 0 0 0
155 52 2 -0.35 74.3092355222216 103.78112335314322 145.9751749827506 0 0 0
156 52 2 -0.35 74.4115284408299 106.09880365335098 145.958023165603 0 0 0
157 53 1 0.7 160.63063968933685 119.16125868408068 143.27470334399243 0 0 0
158 53 2 -0.35 159.59096832791704 119.0834139916045 142.7661527918378 0 0 0
159 53 2 -0.35 161.67031105075665 119.23910337655686 143.78325389614704 0 0 0
160 54 1 0.7 137.93910248109097 52.4953996960518 160.18269154251678 0 0 0
161 54 2 -0.35 137.21889220589617 53.364868091626356 160.44900314309186 0 0 0
162 54 2 -0.35 138.65931275628577 51.62593130047724 159.9163799419417 0 0 0
163 55 1 0.7 70.49675507959759 108.96262279663357 94.80134302042487 0 0 0
164 55 2 -0.35 69.67351131805395 108.79570101614834 95.60134728808794 0 0 0
165 55 2 -0.35 71.31999884114123 109.12954457711879 94.0013387527618 0 0 0
166 56 1 0.7 86.17214428082674 65.22892785502081 142.590459334939 0 0 0
167 56 2 -0.35 85.0330882952616 65.17404947889965 142.37799798414184 0 0 0
168 56 2 -0.35 87.31120026639188 65.28380623114198 142.80292068573615 0 0 0
169 57 1 0.7 27.850042319786755 65.66126865598432 98.94230112849843 0 0 0
170 57 2 -0.35 26.74170024480197 65.72902414650979 98.60676120788976 0 0 0
171 57 2 -0.35 28.958384394771542 65.59351316545884 99.2778410491071 0 0 0
172 58 1 0.7 153.25506667292447 87.90557184159083 128.94594161722154 0 0 0
173 58 2 -0.35 153.6281144649149 86.89691718573343 129.38074172084188 0 0 0
174 58 2 -0.35 152.88201888093406 88.91422649744823 128.5111415136012 0 0 0
175 59 1 0.7 34.44076064249536 165.86411841952435 18.238276945538015 0 0 0
176 59 2 -0.35 34.1847235852745 164.80735397941146 17.834180492395262 0 0 0
177 59 2 -0.35 34.69679769971623 166.92088285963723 18.642373398680768 0 0 0
178 60 1 0.7 20.720623657442918 91.52181064315225 47.07147945979214 0 0 0
179 60 2 -0.35 19.700815929682932 91.25654294802723 46.586479203788 0 0 0
180 60 2 -0.35 21.740431385202903 91.78707833827727 47.55647971579627 0 0 0
181 61 1 0.7 120.35528072638218 151.20316830519732 111.64970545175007 0 0 0
182 61 2 -0.35 119.2849053200825 151.49785716628762 111.98594192320746 0 0 0
183 61 2 -0.35 121.42565613268185 150.90847944410703 111.31346898029267 0 0 0
184 62 1 0.7 36.599527563247605 68.2597555025759 81.7107317930603 0 0 0
185 62 2 -0.35 37.16358035875036 69.0708666200049 82.3186324420718 0 0 0
186 62 2 -0.35 36.03547476774485 67.44864438514689 81.1028311440488 0 0 0
187 63 1 0.7 52.26924596460035 99.21692703814102 8.892730036234823 0 0 0
188 63 2 -0.35 51.20537716733523 99.64211644838382 8.711078866067776 0 0 0
189 63 2 -0.35 53.333114761865474 98.79173762789823 9.07438120640187 0 0 0
190 64 1 0.7 30.113718998671377 31.275210669858012 2.465728303634435 0 0 0
191 64 2 -0.35 30.15396632834344 32.18235008287651 1.7438708122950968 0 0 0
192 64 2 -0.35 30.073471668999314 30.368071256839514 3.187585794973773 0 0 0
193 65 1 0.7 131.4955991839504 46.53548465414694 121.89058224758625 0 0 0
194 65 2 -0.35 131.76560743623233 45.9216783314712 122.83712191497634 0 0 0
195 65 2 -0.35 131.22559093166845 47.149290976822684 120.94404258019617 0 0 0
196 66 1 0.7 115.015835182283 1.1419086303291417 152.05834994188433 0 0 0
197 66 2 -0.35 114.27302777971177 1.3687361898605679 151.19673145268948 0 0 0
198 66 2 -0.35 115.75864258485423 0.9150810707977156 152.91996843107918 0 0 0
199 67 1 0.7 34.687473249941824 62.3629117721519 83.45815455702048 0 0 0
200 67 2 -0.35 34.291247748631235 61.371566931892474 83.00445778625591 0 0 0
201 67 2 -0.35 35.08369875125241 63.35425661241132 83.91185132778504 0 0 0
202 68 1 0.7 11.203639843130315 109.57484349122963 14.39455709624782 0 0 0
203 68 2 -0.35 10.548941884478499 110.24054652108114 13.706218473923261 0 0 0
204 68 2 -0.35 11.858337801782131 108.90914046137812 15.082895718572377 0 0 0
205 69 1 0.7 19.321116637122405 30.00732011627747 113.0291942753965 0 0 0
206 69 2 -0.35 18.2187478680243 30.063530267334226 113.38587833143953 0 0 0
207 69 2 -0.35 20.42348540622051 29.951109965220713 112.67251021935348 0 0 0
208 70 1 0.7 101.66818658898966 67.21200114917569 152.1033141958077 0 0 0
209 70 2 -0.35 100.55441622014453 67.29011745487539 151.78865023494401 0 0 0
210 70 2 -0.35 102.78195695783478 67.133884843476 152.4179781566714 0 0 0
211 71 1 0.7 110.4016889400788 141.18601590450203 53.369306965437396 0 0 0
212 71 2 -0.35 111.44501011066126 140.74693991202238 53.62286801891854 0 0 0
213 71 2 -0.35 109.35836776949634 141.62509189698167 53.11574591195625 0 0 0
214 72 1 0.7 57.94216810629804 74.01936255116917 153.42639750029258 0 0 0
215 72 2 -0.35 56.784923637390314 74.03764537729256 153.504185529265 0 0 0
216 72 2 -0.35 59.09941257520577 74.00107972504577 153.34860947132017 0 0 0
217 73 1 0.7 77.46278741744477 57.068124994201646 3.976777547028278 0 0 0
218 73 2 -0.35 77.41090027691229 58.1620997667508 4.3590430590397515 0 0 0
219 73 2 -0.35 77.51467455797726 55.97415022165249 3.594512035016805 0 0 0
220 74 1 0.7 27.700232904264812 97.81442197869272 66.9901958885557 0 0 0
221 74 2 -0.35 26.550882159069477 97.91003719175528 66.86589546397907 0 0 0
222 74 2 -0.35 28.849583649460147 97.71880676563016 67.11449631313234 0 0 0
223 75 1 0.7 164.22229895564834 134.17854758174093 88.84920631947425 0 0 0
224 75 2 -0.35 163.6850090867834 133.48622367493607 88.0892015794354 0 0 0
225 75 2 -0.35 164.7595888245133 134.8708714885458 89.6092110595131 0 0 0
226 76 1 0.7 8.6106114036453 48.54586106657324 80.28694589635681 0 0 0
227 76 2 -0.35 9.568025635571036 48.87453043616617 80.8534566500036 0 0 0
228 76 2 -0.35 7.653197171719566 48.21719169698031 79.72043514271003 0 0 0
229 77 1 0.7 92.69968006885595 123.52291726205634 9.670423380877088 0 0 0
230 77 2 -0.35 91.88014955021335 124.12842448381 9.11604919910313 0 0 0
231 77 2 -0.35 93.51921058749856 122.91741004030268 10.224797562651045 0 0 0
232 78 1 0.7 10.805762401225866 52.44867740312995 54.92111440511472 0 0 0
233 78 2 -0.35 10.94171498977204 51.94141898760094 53.88680023933017 0 0 0
234 78 2 -0.35 10.669809812679693 52.95593581865896 55.95542857089927 0 0 0
235 79 1 0.7 129.16980676314319 56.942268147572065 98.70075624375639 0 0 0
236 79 2 -0.35 128.256869674055 56.31845107315197 98.35004535280898 0 0 0
237 79 2 -0.35 130.08274385223137 57.56608522199216 99.0514671347038 0 0 0
238 80 1 0.7 3.610188813698566 156.44339183179818 124.08651703227615 0 0 0
239 80 2 -0.35 4.545298162629588 155.85027740084797 124.43203950237094 0 0 0
240 80 2 -0.35 2.6750794647675433 157.0365062627484 123.74099456218136 0 0 0
241 81 1 0.7 132.09176146522714 36.234946072210995 60.73863565024856 0 0 0
242 81 2 -0.35 131.34775773790628 37.070733391932684 61.04444279523557 0 0 0
243 81 2 -0.35 132.835765192548 35.399158752489306 60.432828505261554 0 0 0
244 82 1 0.7 154.24937372759422 139.22423967589822 61.79623282132495 0 0 0
245 82 2 -0.35 154.52477257539599 138.1845419755623 62.23072582074574 0 0 0
246 82 2 -0.35 153.97397487979245 140.26393737623414 61.36173982190416 0 0 0
247 83 1 0.7 79.28502800841119 83.46573736680007 138.6479238088466 0 0 0
248 83 2 -0.35 78.40175034669394 83.51436128457574 137.8975530425374 0 0 0
249 83 2 -0.35 80.16830567012843 83.4171134490244 139.3982945751558 0 0 0
250 84 1 0.7 65.65545528459151 1.2369681295179613 49.723352808376475 0 0 0
251 84 2 -0.35 66.80656169482369 1.0936328494705565 49.72034784313197 0 0 0
252 84 2 -0.35 64.50434887435934 1.3803034095653661 49.72635777362098 0 0 0
253 85 1 0.7 150.3906503833787 55.66099344550678 154.3168386324853 0 0 0
254 85 2 -0.35 151.29662799829813 54.980893640271326 154.06730142847837 0 0 0
255 85 2 -0.35 149.48467276845926 56.34109325074224 154.5663758364922 0 0 0
256 86 1 0.7 83.10689618024365 57.60410135500324 2.1314735394583426 0 0 0
257 86 2 -0.35 82.4715455245923 57.91924161463358 3.049414801807694 0 0 0
258 86 2 -0.35 83.742246835895 57.2889610953729 1.2135322771089911 0 0 0
259 87 1 0.7 123.67577767636429 28.795406654847508 144.39964802209272 0 0 0
260 87 2 -0.35 123.36234224549113 28.286367826119427 145.39374947643253 0 0 0
261 87 2 -0.35 123.98921310723745 29.304445483575588 143.4055465677529 0 0 0
262 88 1 0.7 4.884307312259594 150.5529971469906 64.22304947125868 0 0 0
263 88 2 -0.35 4.888958038758132 150.29414011645935 63.092310151836394 0 0 0
264 88 2 -0.35 4.879656585761055 150.81185417752187 65.35378879068097 0 0 0
265 89 1 0.7 66.79246344454236 70.93311242337018 132.82049958259822 0 0 0
266 89 2 -0.35 66.01636878443696 71.42577724349655 132.11299802530968 0 0 0
267 89 2 -0.35 67.56855810464776 70.4404476032438 133.52800113988675 0 0 0
268 90 1 0.7 44.13648472825833 91.898827837733 93.59946877863233 0 0 0
269 90 2 -0.35 44.89062260249895 91.12307313663955 94.01789524811919 0 0 0
270 90 2 -0.35 43.38234685401771 92.67458253882644 93.18104230914547 0 0 0
271 91 1 0.7 116.27176247363528 29.511894387897055 116.40897738580078 0 0 0
272 91 2 -0.35 115.26574448001902 29.313402005097576 115.86664117044087 0 0 0
273 91 2 -0.35 117.27778046725153 29.710386770696534 116.95131360116069 0 0 0
274 92 1 0.7 125.68292315382647 102.88944636140458 22.924996126873886 0 0 0
275 92 2 -0.35 124.79694346262441 102.5969489514624 23.614260409971905 0 0 0
276 92 2 -0.35 126.56890284502852 103.18194377134677 22.235731843775866 0 0 0
277 93 1 0.7 80.40990436934396 119.26273556391835 148.796622775866 0 0 0
278 93 2 -0.35 79.2509083467851 119.21554724802924 148.80669662995896 0 0 0
279 93 2 -0.35 81.56890039190283 119.30992387980747 148.78654892177306 0 0 0
280 94 1 0.7 124.83899398000865 28.971822005217813 49.41244169576673 0 0 0
281 94 2 -0.35 124.9284490382808 28.30952475748349 50.360576785399566 0 0 0
282 94 2 -0.35 124.7495389217365 29.634119252952136 48.464306606133896 0 0 0
283 95 1 0.7 24.90758075141701 81.70968906567883 34.74412686412415 0 0 0
284 95 2 -0.35 23.756688981600686 81.57099528085057 34.78669643329106 0 0 0
285 95 2 -0.35 26.058472521233337 81.8483828505071 34.70155729495723 0 0 0
286 96 1 0.7 164.54020533456477 37.231058030031186 142.39231073408962 0 0 0
287 96 2 -0.35 163.92202455433306 37.56618394902938 143.31488492696937 0 0 0
288 96 2 -0.35 165.15838611479649 36.89593211103299 141.46973654120987 0 0 0
289 97 1 0.7 97.56650784405252 150.2973349906026 17.3091870580377 0 0 0
290 97 2 -0.35 97.55851019556201 150.75880267699497 16.244957941712517 0 0 0
291 97 2 -0.35 97.57450549254304 149.8358673042102 18.373416174362884 0 0 0
292 98 1 0.7 45.50688443961874 4.206776672139195 153.2955286434365 0 0 0
293 98 2 -0.35 45.21543403155975 3.6230197318617914 154.2546347347112 0 0 0
294 98 2 -0.35 45.79833484767772 4.790533612416598 152.33642255216182 0 0 0
295 99 1 0.7 87.94991023743054 24.14136049530532 123.84584459655258 0 0 0
296 99 2 -0.35 86.85260861985233 23.865708694592882 123.589826540892 0 0 0
297 99 2 -0.35 89.04721185500875 24.41701229601776 124.10186265221316 0 0 0
298 100 1 0.7 167.11013425938324 50.026497454394814 145.34271601370662 0 0 0
299 100 2 -0.35 166.84254373970205 51.14337097529361 145.17965512909024 0 0 0
300 100 2 -0.35 167.37772477906444 48.90962393349602 145.505776898323 0 0 0
301 101 1 0.7 45.02804236720691 116.30806564647148 129.65932024626963 0 0 0
302 101 2 -0.35 44.15690626411449 116.21269767362764 128.8993025888138 0 0 0
303 101 2 -0.35 45.899178470299326 116.40343361931531 130.41933790372545 0 0 0
304 102 1 0.7 124.19537905333348 91.73574937588337 72.73976047185239 0 0 0
305 102 2 -0.35 125.29069948416036 92.11759840185965 72.73173082838514 0 0 0
306 102 2 -0.35 123.10005862250661 91.3539003499071 72.74779011531965 0 0 0
307 103 1 0.7 67.15425042303012 31.48685986711032 159.6537865231064 0 0 0
308 103 2 -0.35 66.12814724366687 30.94718134721694 159.61558494635452 0 0 0
309 103 2 -0.35 68.18035360239337 32.0265383870037 159.69198809985826 0 0 0
310 104 1 0.7 21.190093849408484 161.9073270083905 156.4450300188945 0 0 0
311 104 2 -0.35 20.03049899135489 161.92916712382666 156.42351782390188 0 0 0
312 104 2 -0.35 22.34968870746208 161.88548689295433 156.46654221388712 0 0 0
313 105 1 0.7 151.61952755955025 139.399693361204 120.64632175520356 0 0 0
314 105 2 -0.35 150.739584360119 140.04575211270674 120.254010583579 0 0 0
315 105 2 -0.35 152.4994707589815 138.75363460970124 121.03863292682811 0 0 0
316 106 1 0.7 112.7297397063718 168.73524499066883 163.2625581711822 0 0 0
317 106 2 -0.35 111.59971063290595 168.6566711724821 163.01263728726593 0 0 0
318 106 2 -0.35 113.85976877983765 168.81381880885556 163.51247905509848 0 0 0
319 107 1 0.7 153.81518305922634 151.781676417115 144.6355424517 0 0 0
320 107 2 -0.35 154.51417557240347 150.8641983768151 144.7590070704772 0 0 0
321 107 2 -0.35 153.1161905460492 152.6991544574149 144.51207783292278 0 0 0
322 108 1 0.7 59.561985721607684 98.29402306037676 137.64557575231677 0 0 0
323 108 2 -0.35 60.71303852613851 98.33834964302812 137.78236974067943 0 0 0
324 108 2 -0.35 58.410932917076856 98.2496964777254 137.50878176395412 0 0 0
325 109 1 0.7 49.19166918806344 54.384043782196954 112.62384738429628 0 0 0
326 109 2 -0.35 48.04376152744664 54.485241248294905 112.49092983258613 0 0 0
327 109 2 -0.35 50.339576848680245 54.282846316099004 112.75676493600643 0 0 0
328 110 1 0.7 89.00298786768829 43.217092237070716 109.66922844744717 0 0 0
329 110 2 -0.35 89.77423064526096 43.98230863716716 110.07571145947283 0 0 0
330 110 2 -0.35 88.23174509011562 42.451875836974274 109.26274543542151 0 0 0
331 111 1 0.7 70.7225162446138 163.33052322423575 106.10382973035045 0 0 0
332 111 2 -0.35 69.88366447782354 163.62328128616466 106.84963160117707 0 0 0
333 111 2 -0.35 71.56136801140406 163.03776516230684 105.35802785952384 0 0 0
334 112 1 0.7 157.06627799992742 52.93434478013513 57.53271973111328 0 0 0
335 112 2 -0.35 156.19104774041054 52.2195243357708 57.794642859425345 0 0 0
336 112 2 -0.35 157.9415082594443 53.649165224499455 57.27079660280122 0 0 0
337 113 1 0.7 162.42052082085075 111.69343603853763 91.57949970177351 0 0 0
338 113 2 -0.35 161.42836964990525 112.27019795299282 91.74856107532011 0 0 0
339 113 2 -0.35 163.41267199179626 111.11667412408244 91.41043832822692 0 0 0
340 114 1 0.7 166.6514877074638 161.5538993438491 166.3862720720406 0 0 0
341 114 2 -0.35 165.56883013814326 161.29153006784895 166.06282972694007 0 0 0
342 114 2 -0.35 167.73414527678432 161.81626861984927 166.70971441714116 0 0 0
343 115 1 0.7 124.07471478640787 103.7314151570813 63.89454506518997 0 0 0
344 115 2 -0.35 124.988339667427 103.86576160300731 63.19251899070996 0 0 0
345 115 2 -0.35 123.16108990538874 103.59706871115529 64.59657113966999 0 0 0
346 116 1 0.7 155.61891064775125 37.03125675536285 14.332287383420528 0 0 0
347 116 2 -0.35 155.8479899102597 35.95622440959433 13.961574358237954 0 0 0
348 116 2 -0.35 155.3898313852428 38.10628910113137 14.703000408603103 0 0 0
349 117 1 0.7 162.75405314879214 107.37127174966561 38.964296630101416 0 0 0
350 117 2 -0.35 162.944577110935 107.25958958456953 37.82551319421519 0 0 0
351 117 2 -0.35 162.56352918664928 107.4829539147617 40.10308006598764 0 0 0
352 118 1 0.7 32.93346211450801 162.69775853617944 11.227717567806932 0 0 0
353 118 2 -0.35 31.778870277606703 162.77055093543686 11.312682011965752 0 0 0
354 118 2 -0.35 34.088053951409314 162.624966136922 11.142753123648113 0 0 0
355 119 1 0.7 4.24916213110516 15.66793748441522 1.0253005665844774 0 0 0
356 119 2 -0.35 5.24625785489228 16.094553781513127 1.4368812423406498 0 0 0
357 119 2 -0.35 3.2520664073180403 15.24132118731731 0.6137198908283051 0 0 0
358 120 1 0.7 62.226622585312754 2.845791351443991 59.21524371915276 0 0 0
359 120 2 -0.35 61.574569199608476 1.9613694411725304 59.5870289620328 0 0 0
360 120 2 -0.35 62.87867597101703 3.7302132617154515 58.84345847627272 0 0 0
361 121 1 0.7 50.60118780033718 114.16336026702231 123.59600784424507 0 0 0
362 121 2 -0.35 49.555848376765326 113.68257699061282 123.74336092582608 0 0 0
363 121 2 -0.35 51.64652722390903 114.64414354343181 123.44865476266405 0 0 0
364 122 1 0.7 48.103838226806296 131.2090779334349 160.9728272403464 0 0 0
365 122 2 -0.35 47.15069492277875 130.61883572243016 160.67494811329036 0 0 0
366 122 2 -0.35 49.056981530833845 131.79932014443966 161.27070636740243 0 0 0
367 123 1 0.7 90.30742850168954 36.95082789610644 22.564449860977216 0 0 0
368 123 2 -0.35 90.29843662601374 37.48520944367598 21.534908454433012 0 0 0
369 123 2 -0.35 90.31642037736535 36.4164463485369 23.59399126752142 0 0 0
370 124 1 0.7 140.70881344411 23.02755515697764 104.11952332319669 0 0 0
371 124 2 -0.35 139.55673591613404 23.124695062856045 104.21376348564739 0 0 0
372 124 2 -0.35 141.86089097208597 22.930415251099237 104.02528316074599 0 0 0
373 125 1 0.7 126.82849296686635 146.4812941227487 141.11032103705702 0 0 0
374 125 2 -0.35 125.94952347002813 146.8609866196788 140.45545751585362 0 0 0
375 125 2 -0.35 127.70746246370457 146.10160162581857 141.76518455826042 0 0 0
376 126 1 0.7 141.16566981708897 51.412615813972714 151.8339854394244 0 0 0
377 126 2 -0.35 140.52153718014793 50.51705977504901 152.1926949697894 0 0 0
378 126 2 -0.35 141.80980245403 52.308171852896415 151.4752759090594 0 0 0
379 127 1 0.7 3.793280405827463 3.6637807421683246 37.16293362302842 0 0 0
380 127 2 -0.35 3.4428182754963186 4.613564523524563 37.72922600676354 0 0 0
381 127 2 -0.35 4.143742536158607 2.7139969608120866 36.596641239293305 0 0 0
382 128 1 0.7 17.42540223869747 128.73542578832033 66.3012242998468 0 0 0
383 128 2 -0.35 16.516963445081046 128.21141039935605 65.80549571444814 0 0 0
384 128 2 -0.35 18.33384103231389 129.2594411772846 66.79695288524545 0 0 0
385 129 1 0.7 144.67680752495156 73.10407186071578 70.13576305012022 0 0 0
386 129 2 -0.35 143.6163035649947 73.5688784438892 70.2056643459199 0 0 0
387 129 2 -0.35 145.73731148490842 72.63926527754235 70.06586175432054 0 0 0
388 130 1 0.7 161.76958337042927 51.38770680473545 73.18826718870004 0 0 0
389 130 2 -0.35 160.69974404293853 51.16151132980512 72.80112455287285 0 0 0
390 130 2 -0.35 162.83942269792 51.61390227966578 73.57540982452723 0 0 0
391 131 1 0.7 125.20664048157941 88.00657390524007 126.48762537002918 0 0 0
392 131 2 -0.35 124.47661285636183 87.217219606105 126.92303260108552 0 0 0