LAMMPS (29 Aug 2024 - Update 1)
  using 1 OpenMP thread(s) per MPI task
package gpu 1 gpuID 0
# GCMC for CO2 molecular fluid, rigid/small/nvt dynamics
# Rigid CO2 TraPPE model
# [Potoff and J.I. Siepmann, Vapor-liquid equilibria of
# mixtures containing alkanes, carbon dioxide and
# nitrogen AIChE J., 47,1676-1682 (2001)].

# global model settings

units           real
atom_style      full
boundary        p p p
pair_style      lj/cut/coul/long  12
pair_modify     mix arithmetic shift yes
kspace_style    pppm 1.0e-4
bond_style      harmonic
angle_style     harmonic
neigh_modify    one 4000

# box, start molecules on simple cubic lattice
region          mbox block 0 ${lbox} 0 ${lbox} 0 ${lbox} units box
region          mbox block 0 170 0 ${lbox} 0 ${lbox} units box
region          mbox block 0 170 0 170 0 ${lbox} units box
region          mbox block 0 170 0 170 0 170 units box
create_box      2 mbox                                       bond/types 1                                angle/types 1                               extra/bond/per/atom 2                       extra/angle/per/atom 1                      extra/special/per/atom 2
Created orthogonal box = (0 0 0) to (170 170 170)
  1 by 1 by 1 MPI processor grid
molecule        co2mol ../CO2.txt
Read molecule template co2mol:
# CO2 molecule file. TraPPE model.
  1 molecules
  0 fragments
  3 atoms with max type 2
  2 bonds with max type 1
  1 angles with max type 1
  0 dihedrals with max type 0
  0 impropers with max type 0
create_atoms   	0 random ${nmols} 34578 mbox mol co2mol 464563 overlap 1.2
create_atoms   	0 random 500 34578 mbox mol co2mol 464563 overlap 1.2
Created 1500 atoms
  using lattice units in orthogonal box = (0 0 0) to (170 170 170)
  create_atoms CPU = 0.013 seconds

# rigid CO2 TraPPE model

pair_coeff      1   1  0.053649   2.800
pair_coeff      2   2  0.156973   3.050
bond_coeff      1       0       1.16
angle_coeff     1       0       180

# masses

mass 1 12.0107
mass 2 15.9994

write_data init_conf.data  pair ij
System init for write_data ...
PPPM initialization ...
  using 12-bit tables for long-range coulomb (src/kspace.cpp:342)
  G vector (1/distance) = 0.15604469
  grid = 32 32 32
  stencil order = 5
  estimated absolute RMS force accuracy = 0.034826331
  estimated relative force accuracy = 0.00010487846
  using double precision FFTW3
  3d grid and FFT values/proc = 50653 32768
Generated 1 of 1 mixed pair_coeff terms from arithmetic mixing rule

# MD settings

group           co2 type 1 2
1500 atoms in group co2
velocity       	all create 300 54654
timestep        0.25

# rigid constraints with thermostat
fix             myrigidnvt co2 rigid/nvt molecule temp 300 300 $(100*dt)
fix             myrigidnvt co2 rigid/nvt molecule temp 300 300 25
  500 rigid bodies with 1500 atoms

thermo 1000
thermo_style custom step temp density press ke pe etotal


variable    mvol equal vol
variable    mden equal density
variable	mtmp equal temp
variable    mpre equal press

fix mydat all ave/time 1 4000 4000 v_mtmp v_mden v_mpre file statistics.dat ## every 1ps

run 4000000 ## 1ns

CITE-CITE-CITE-CITE-CITE-CITE-CITE-CITE-CITE-CITE-CITE-CITE-CITE

Your simulation uses code contributions which should be cited:

- GPU package (short-range, long-range and three-body potentials): doi:10.1016/j.cpc.2010.12.021, doi:10.1016/j.cpc.2011.10.012, doi:10.1016/j.cpc.2013.08.002, doi:10.1016/j.commatsci.2014.10.068, doi:10.1016/j.cpc.2016.10.020, doi:10.3233/APC200086

@Article{Brown11,
 author = {W. M. Brown and P. Wang and S. J. Plimpton and A. N. Tharrington},
 title = {Implementing Molecular Dynamics on Hybrid High Performance Computers---Short Range Forces},
 journal = {Comput.\ Phys.\ Commun.},
 year =    2011,
 volume =  182,
 pages =   {898--911},
 doi =     {10.1016/j.cpc.2010.12.021}
}

@Article{Brown12,
 author = {W. M. Brown and A. Kohlmeyer and S. J. Plimpton and A. N. Tharrington},
 title = {Implementing Molecular Dynamics on Hybrid High Performance Computers - Particle-Particle Particle-Mesh},
 journal = {Comput.\ Phys.\ Commun.},
 year =    2012,
 volume =  183,
 doi =     {10.1016/j.cpc.2011.10.012},
 pages =   {449--459}
}

@Article{Brown13,
 author = {W. M. Brown and Y. Masako},
 title = {Implementing Molecular Dynamics on Hybrid High Performance Computers---Three-Body Potentials},
 journal = {Comput.\ Phys.\ Commun.},
 year =    2013,
 volume =  184,
 pages =   {2785--2793},
 doi =     {10.1016/j.cpc.2013.08.002},
}

@Article{Trung15,
 author = {T. D. Nguyen and S. J. Plimpton},
 title = {Accelerating Dissipative Particle Dynamics Simulations for Soft Matter Systems},
 journal = {Comput.\ Mater.\ Sci.},
 year =    2015,
 doi =     {10.1016/j.commatsci.2014.10.068},
 volume =  100,
 pages =   {173--180}
}

@Article{Trung17,
 author = {T. D. Nguyen},
 title = {{GPU}-Accelerated {T}ersoff Potentials for Massively Parallel
    Molecular Dynamics Simulations},
 journal = {Comput.\ Phys.\ Commun.},
 year =    2017,
 doi =     {10.1016/j.cpc.2016.10.020},
 volume =  212,
 pages =   {113--122}
}

@inproceedings{Nikolskiy19,
 author = {V. Nikolskiy and V. Stegailov},
 title = {{GPU} Acceleration of Four-Site Water Models in {LAMMPS}},
 booktitle = {Proceedings of the International Conference on Parallel
    Computing (ParCo 2019), Prague, Czech Republic},
 doi =     {10.3233/APC200086},
 year =    2019
}

CITE-CITE-CITE-CITE-CITE-CITE-CITE-CITE-CITE-CITE-CITE-CITE-CITE

PPPM initialization ...
  using 12-bit tables for long-range coulomb (src/kspace.cpp:342)
  G vector (1/distance) = 0.15604469
  grid = 32 32 32
  stencil order = 5
  estimated absolute RMS force accuracy = 0.034826331
  estimated relative force accuracy = 0.00010487846
  using double precision FFTW3
  3d grid and FFT values/proc = 50653 32768
Generated 1 of 1 mixed pair_coeff terms from arithmetic mixing rule
Per MPI rank memory allocation (min/avg/max) = 12.15 | 12.15 | 12.15 Mbytes
   Step          Temp         Density         Press          KinEng         PotEng         TotEng    
         0   307.69091      0.0074373588   54.088053      763.38962      13733.194      14496.583    
      1000   324.73998      0.0074373588   8.4277088      805.68884     -9.592436       796.09641    
      2000   305.31842      0.0074373588   4.6721558      757.50342     -12.571119      744.9323     
      3000   290.00701      0.0074373588   3.5207655      719.51539     -13.392421      706.12296    
      4000   290.23396      0.0074373588   4.4192222      720.07845     -15.367621      704.71083    
      5000   299.86877      0.0074373588   4.509263       743.98269     -16.386075      727.59661    
      6000   294.41578      0.0074373588   3.9555424      730.45367     -20.144769      710.30891    
      7000   301.20347      0.0074373588   4.5542541      747.29412     -21.791324      725.50279    
      8000   308.7031       0.0074373588   3.2324261      765.9009      -22.005891      743.89501    
      9000   302.24871      0.0074373588   3.5173516      749.88739     -25.691767      724.19562    
     10000   295.98748      0.0074373588   4.5542046      734.3531      -26.158139      708.19496    
     11000   306.03371      0.0074373588   7.7205026      759.27807     -28.106717      731.17135    
     12000   310.40409      0.0074373588   4.3376919      770.1211      -24.846019      745.27508    
     13000   297.08744      0.0074373588   5.7562927      737.08212     -28.265745      708.81638    
     14000   295.68819      0.0074373588   3.7707768      733.61054     -27.533016      706.07752    
     15000   298.42834      0.0074373588   3.5468594      740.40893     -27.999432      712.4095     
     16000   309.69311      0.0074373588   4.0942839      768.35714     -28.505718      739.85142    
     17000   295.43505      0.0074373588   3.4416127      732.98251     -27.312891      705.66962    
     18000   287.03783      0.0074373588   4.592409       712.14876     -28.831897      683.31686    
     19000   313.78306      0.0074373588   3.2094372      778.50443     -29.642094      748.86234    
     20000   307.79463      0.0074373588   4.3663251      763.64697     -31.465375      732.1816     
     21000   296.86028      0.0074373588   5.0158553      736.51855     -32.110518      704.40803    
     22000   299.32678      0.0074373588   3.1396303      742.63799     -37.447149      705.19084    
     23000   295.34766      0.0074373588   3.7988041      732.76568     -37.997924      694.76775    
     24000   318.96243      0.0074373588   4.7590609      791.35459     -37.332984      754.02161    
     25000   300.91619      0.0074373588   2.1474093      746.58136     -39.752689      706.82867    
     26000   299.94913      0.0074373588   7.9480688      744.18206     -42.251285      701.93078    
     27000   299.69574      0.0074373588   3.8910234      743.55339     -39.834617      703.71878    
     28000   294.20023      0.0074373588   5.439611       729.91887     -42.668382      687.25049    
     29000   306.85437      0.0074373588   7.1002239      761.31416     -38.613615      722.70055    
     30000   298.78357      0.0074373588   2.1742751      741.29028     -36.783495      704.50678    
     31000   295.64781      0.0074373588  -1.3749214      733.51037     -43.805325      689.70505    
     32000   303.19767      0.0074373588   6.3735985      752.24177     -45.878563      706.36321    
     33000   295.48639      0.0074373588   3.5006876      733.10988     -48.36207       684.74781    
     34000   303.37468      0.0074373588   3.7400222      752.68094     -46.312009      706.36893    
     35000   304.46503      0.0074373588   4.3694137      755.38613     -51.840729      703.5454     
     36000   299.24547      0.0074373588   3.4285652      742.43626     -53.09211       689.34415    
     37000   294.78492      0.0074373588   3.492362       731.36952     -50.639248      680.73027    
     38000   300.09944      0.0074373588   4.3793307      744.55499     -55.981518      688.57347    
     39000   312.72875      0.0074373588   3.6989821      775.88866     -59.870476      716.01818    
     40000   290.31624      0.0074373588   1.1350902      720.28259     -58.5304        661.75219    
     41000   291.75571      0.0074373588   6.141152       723.85395     -56.455856      667.3981     
     42000   315.26749      0.0074373588   4.9062577      782.18733     -61.019687      721.16764    
     43000   296.31983      0.0074373588   6.7191907      735.17766     -61.522867      673.6548     
     44000   299.18411      0.0074373588  -0.55420612     742.28403     -56.161963      686.12207    
     45000   302.78521      0.0074373588   4.3312685      751.21845     -60.876806      690.34164    
     46000   286.94593      0.0074373588   3.8607779      711.92076     -64.676593      647.24416    
     47000   290.82795      0.0074373588   4.7208485      721.55217     -64.745996      656.80617    
     48000   310.58678      0.0074373588   5.5460946      770.57437     -64.81209       705.76228    
     49000   297.68913      0.0074373588   1.3291351      738.57494     -63.377367      675.19757    
     50000   298.17549      0.0074373588   0.58718303     739.78161     -61.441992      678.33962    
     51000   296.75866      0.0074373588   11.007197      736.26643     -62.725297      673.54113    
     52000   307.86483      0.0074373588   3.6894045      763.82113     -62.09008       701.73105    
     53000   311.10237      0.0074373588   5.3880462      771.85356     -60.966932      710.88663    
     54000   285.39382      0.0074373588   3.6346874      708.06994     -62.820173      645.24976    
     55000   302.44065      0.0074373588   5.5067705      750.36358     -65.21006       685.15352    
     56000   304.37674      0.0074373588   6.6619885      755.16708     -63.324016      691.84307    
     57000   299.03154      0.0074373588   3.7100015      741.90548     -69.08536       672.82013    
     58000   298.04913      0.0074373588   6.7890742      739.46812     -63.700335      675.76778    
     59000   298.40928      0.0074373588   4.4804196      740.36165     -65.368395      674.99326    
     60000   299.31418      0.0074373588  -0.12872846     742.60674     -69.47881       673.12793    
     61000   302.7626       0.0074373588   3.2048275      751.16235     -72.918661      678.24369    
     62000   300.41007      0.0074373588   6.6161057      745.32565     -75.48397       669.84168    
     63000   301.18213      0.0074373588   3.0211806      747.24116     -69.581798      677.65936    
     64000   299.06634      0.0074373588   3.3112051      741.99182     -66.287246      675.70458    
     65000   301.57346      0.0074373588   4.0292183      748.21207     -68.906803      679.30527    
     66000   326.53432      0.0074373588   2.7807602      810.14066     -67.528238      742.61242    
     67000   295.15812      0.0074373588   2.3642723      732.29544     -68.869145      663.4263     
     68000   284.58231      0.0074373588   3.7217966      706.05656     -72.271679      633.78488    
     69000   318.0284       0.0074373588   8.424559       789.03722     -78.822115      710.2151     
     70000   309.11482      0.0074373588   3.3088626      766.92239     -66.010374      700.91202    
     71000   296.27761      0.0074373588   1.4552816      735.07293     -67.218233      667.85469    
     72000   289.31199      0.0074373588   4.1331837      717.79102     -71.031938      646.75908    
     73000   312.62024      0.0074373588   4.8877809      775.61943     -70.309866      705.30956    
     74000   305.25365      0.0074373588   5.4017442      757.34272     -75.293568      682.04915    
     75000   297.49536      0.0074373588   3.8162547      738.09418     -79.378304      658.71587    
     76000   305.7299       0.0074373588   3.2835559      758.5243      -79.190334      679.33396    
     77000   303.58028      0.0074373588   3.8417107      753.19105     -78.497573      674.69348    
     78000   305.74871      0.0074373588   3.552177       758.57097     -77.175282      681.39569    
     79000   289.55669      0.0074373588   6.1863017      718.39812     -77.760843      640.63728    
     80000   298.34605      0.0074373588   2.85889        740.20477     -77.884858      662.31991    
     81000   305.21225      0.0074373588   4.1987637      757.24001     -77.465816      679.7742     
     82000   309.74152      0.0074373588   4.12314        768.47724     -82.672897      685.80434    
     83000   301.79826      0.0074373588   3.7176943      748.7698      -83.952346      664.81746    
     84000   290.95032      0.0074373588   5.7424865      721.85575     -82.767682      639.08807    
     85000   305.4335       0.0074373588   2.7362244      757.78894     -76.234752      681.55419    
     86000   306.31137      0.0074373588  -1.3325002      759.96696     -80.817484      679.14948    
     87000   287.88749      0.0074373588   1.9118289      714.25679     -82.516396      631.7404     
     88000   300.10429      0.0074373588   5.9776758      744.56701     -83.274815      661.29219    
     89000   311.87906      0.0074373588   3.060814       773.78053     -87.502565      686.27797    
     90000   298.27541      0.0074373588   3.7932783      740.02951     -87.505096      652.52442    
     91000   294.37982      0.0074373588   3.8551666      730.36444     -86.964582      643.39986    
     92000   303.45856      0.0074373588   4.1832278      752.88905     -85.861387      667.02766    
     93000   302.77521      0.0074373588   2.9525508      751.19364     -86.691902      664.50173    
     94000   303.29463      0.0074373588   5.8227955      752.48234     -85.233827      667.24851    
     95000   298.16908      0.0074373588   3.4244716      739.7657      -88.096811      651.66889    
     96000   297.38839      0.0074373588  -2.3027476      737.8288      -85.09015       652.73865    
     97000   305.63875      0.0074373588   4.515381       758.29816     -82.738573      675.55959    
     98000   306.59862      0.0074373588   5.8175535      760.67964     -77.892583      682.78705    
     99000   285.26859      0.0074373588   4.128918       707.75924     -78.01094       629.7483     
    100000   296.38285      0.0074373588   3.5269221      735.33402     -82.635481      652.69854    
    101000   305.02211      0.0074373588   2.8128468      756.76827     -87.229582      669.53869    
    102000   283.821        0.0074373588   5.4757274      704.16773     -85.307049      618.86068    
    103000   311.70393      0.0074373588   7.0041067      773.34604     -85.314289      688.03175    
    104000   301.82783      0.0074373588   2.1895029      748.84316     -90.466417      658.37675    
    105000   302.98503      0.0074373588   2.0457045      751.7142      -88.819653      662.89455    
    106000   290.97246      0.0074373588   7.5096445      721.91069     -87.922404      633.98829    
    107000   304.50276      0.0074373588   6.7044184      755.47973     -86.355327      669.1244     
    108000   309.41465      0.0074373588   0.2993282      767.66628     -86.340563      681.32572    
    109000   303.32143      0.0074373588   0.64723522     752.54883     -89.200092      663.34874    
    110000   290.3959       0.0074373588  -1.7047056      720.48023     -85.5781        634.90213    
    111000   300.03341      0.0074373588   5.2830223      744.39115     -84.818285      659.57287    
    112000   291.47485      0.0074373588   13.580336      723.15713     -85.685311      637.47182    
    113000   299.54911      0.0074373588  -0.23652352     743.18961     -85.053252      658.13636    
    114000   302.72109      0.0074373588  -8.4170889      751.05936     -82.510953      668.54841    
    115000   296.16407      0.0074373588   5.5555443      734.79123     -85.160662      649.63056    
    116000   279.53276      0.0074373588   6.1655465      693.52847     -89.321089      604.20738    
    117000   302.52773      0.0074373588   1.3207383      750.57965     -90.731656      659.84799    
    118000   306.36076      0.0074373588   2.7518533      760.08949     -99.647845      660.44164    
    119000   299.7896       0.0074373588   6.6953905      743.78625     -90.887102      652.89915    
    120000   288.71751      0.0074373588   7.6832568      716.31611     -92.780669      623.53544    
    121000   305.31459      0.0074373588   2.7593129      757.49392     -98.206302      659.28762    
    122000   305.55204      0.0074373588   3.4933634      758.08304     -94.605442      663.47759    
    123000   296.41868      0.0074373588   3.5431208      735.42291     -95.007813      640.4151     
    124000   282.6579       0.0074373588   5.5291859      701.28204     -95.308986      605.97305    
    125000   298.59021      0.0074373588   5.0668643      740.81055     -92.671282      648.13927    
    126000   319.78934      0.0074373588   2.3838661      793.40616     -95.568121      697.83804    
    127000   308.45593      0.0074373588   4.112031       765.28765     -92.67363       672.61402    
    128000   302.31619      0.0074373588   9.5331188      750.0548      -92.410825      657.64398    
    129000   295.92322      0.0074373588   2.552078       734.19368     -95.97274       638.22094    
    130000   288.05135      0.0074373588   2.0928095      714.66334     -101.42292      613.24042    
    131000   309.05635      0.0074373588   4.0035339      766.77732     -95.399354      671.37797    
    132000   308.24889      0.0074373588   4.3482798      764.77399     -93.241963      671.53202    
    133000   281.28126      0.0074373588   4.1400831      697.86656     -93.314686      604.55188    
    134000   298.3294       0.0074373588   5.0540086      740.16345     -91.770581      648.39287    
    135000   314.34365      0.0074373588   5.6737023      779.89525     -91.300512      688.59474    
    136000   302.84401      0.0074373588   1.3268749      751.36435     -93.667063      657.69728    
    137000   295.70122      0.0074373588   4.1574206      733.64288     -92.451997      641.19089    
    138000   306.63136      0.0074373588   3.8297755      760.76084     -95.463165      665.29768    
    139000   303.15998      0.0074373588  -2.7950557      752.14826     -95.241962      656.9063     
    140000   298.94915      0.0074373588   0.90565285     741.70109     -92.77378       648.92731    
    141000   292.42537      0.0074373588   5.1321603      725.5154      -93.612947      631.90246    
    142000   289.98346      0.0074373588   12.881982      719.45696     -89.413998      630.04296    
    143000   315.6398       0.0074373588   2.4786147      783.11105     -91.145962      691.96509    
    144000   307.5349       0.0074373588  -0.91805767     763.00257     -91.78554       671.21703    
    145000   295.29127      0.0074373588   4.6920784      732.62577     -85.581713      647.04406    
    146000   295.91949      0.0074373588   8.8870664      734.18442     -84.727434      649.45699    
    147000   309.81362      0.0074373588   4.8941571      768.65614     -90.734062      677.92208    
    148000   309.72016      0.0074373588   4.5958738      768.42425     -90.696823      677.72743    
    149000   290.41728      0.0074373588   4.7298466      720.53327     -86.702057      633.83121    
    150000   295.7718       0.0074373588   1.5283447      733.81799     -87.451736      646.36626    
    151000   313.40012      0.0074373588   4.4033684      777.55433     -86.031375      691.52295    
    152000   291.53069      0.0074373588   3.5105299      723.29568     -90.067685      633.22799    
    153000   297.79429      0.0074373588   4.0895146      738.83583     -84.210133      654.6257     
    154000   314.65827      0.0074373588   3.997762       780.67585     -90.440202      690.23565    
    155000   295.86255      0.0074373588   2.063614       734.04315     -87.25067       646.79248    
    156000   290.14899      0.0074373588   3.1656231      719.86764     -87.045378      632.82226    
    157000   311.72396      0.0074373588   4.411647       773.39573     -86.571231      686.8245     
    158000   302.4443       0.0074373588   3.9387873      750.37265     -89.643212      660.72944    
    159000   297.84435      0.0074373588   3.3155753      738.96004     -85.331624      653.62841    
    160000   284.61185      0.0074373588   1.5335527      706.12984     -80.721375      625.40847    
    161000   308.1103       0.0074373588   7.8683258      764.43016     -83.801006      680.62915    
    162000   310.49677      0.0074373588   6.3563724      770.35104     -86.735331      683.61571    
    163000   293.5989       0.0074373588  -0.83722789     728.42697     -90.733697      637.69327    
    164000   301.56387      0.0074373588   5.2242136      748.18828     -85.911641      662.27664    
    165000   328.43661      0.0074373588   4.7568567      814.86027     -84.718997      730.14128    
    166000   299.73703      0.0074373588   3.8487939      743.65583     -89.659551      653.99628    
    167000   294.52851      0.0074373588   4.083072       730.73335     -87.052032      643.68132    
    168000   291.1456       0.0074373588   3.3336369      722.34026     -86.752356      635.5879     
    169000   297.91206      0.0074373588   3.8803847      739.12803     -87.751436      651.3766     
    170000   306.6911       0.0074373588   2.6576256      760.90907     -90.191305      670.71777    
    171000   294.94017      0.0074373588   3.6120885      731.7547      -96.817883      634.93682    
    172000   302.36909      0.0074373588   3.219872       750.18605     -92.900998      657.28506    
    173000   301.85587      0.0074373588   3.7195829      748.91274     -93.29154       655.6212     
    174000   302.61653      0.0074373588   4.1944434      750.79995     -95.619581      655.18037    
    175000   302.73378      0.0074373588   3.8316411      751.09085     -95.373843      655.71701    
    176000   291.6733       0.0074373588   3.1838283      723.64949     -97.79643       625.85306    
    177000   299.85703      0.0074373588   4.2348434      743.95355     -93.524226      650.42933    
    178000   307.53681      0.0074373588   3.5144895      763.0073      -92.421102      670.5862     
    179000   290.53006      0.0074373588   2.0353125      720.81309     -97.532283      623.2808     
    180000   285.42389      0.0074373588   2.984482       708.14453     -92.877609      615.26692    
    181000   300.59005      0.0074373588   6.8223729      745.7722      -91.539503      654.2327     
    182000   311.14617      0.0074373588   5.3676282      771.96222     -83.4726        688.48962    
    183000   312.27347      0.0074373588   3.3917954      774.75909     -87.897361      686.86173    
    184000   297.89678      0.0074373588   3.1965356      739.09013     -87.97552       651.11461    
    185000   297.45822      0.0074373588   3.795146       738.00204     -89.684863      648.31718    
    186000   298.49849      0.0074373588   3.1169703      740.58298     -92.447982      648.135      
    187000   307.32167      0.0074373588   7.9100936      762.47354     -89.027535      673.44601    
    188000   297.23682      0.0074373588   2.689777       737.45274     -82.673335      654.77941    
    189000   305.53077      0.0074373588   2.1302343      758.03027     -86.886399      671.14387    
    190000   301.97733      0.0074373588   4.223399       749.21407     -88.841698      660.37237    
    191000   286.10022      0.0074373588   5.2207168      709.82254     -89.902033      619.9205     
    192000   302.16636      0.0074373588   3.6510904      749.68307     -91.020862      658.66221    
    193000   309.45294      0.0074373588   3.5501614      767.76129     -93.87266       673.88863    
    194000   304.14859      0.0074373588   4.3989019      754.60103     -92.177541      662.42349    
    195000   295.87106      0.0074373588   4.2182533      734.06427     -96.545117      637.51915    
    196000   289.89259      0.0074373588   3.6704015      719.23151     -98.317488      620.91402    
    197000   314.4288       0.0074373588   4.0744645      780.10653     -96.881641      683.22489    
    198000   311.31198      0.0074373588   2.9951267      772.37361     -98.258174      674.11544    
    199000   291.76693      0.0074373588   3.0191024      723.88179     -97.48987       626.39192    
    200000   302.44605      0.0074373588   4.9795475      750.37698     -96.629954      653.74703    
    201000   310.97553      0.0074373588   3.591368       771.53886     -98.03398       673.50488    
    202000   295.55592      0.0074373588   2.5543034      733.28237     -97.615348      635.66703    
    203000   301.64583      0.0074373588   4.3294538      748.39163     -90.622529      657.7691     
    204000   294.0948       0.0074373588   4.5609243      729.65731     -90.248638      639.40867    
    205000   291.63112      0.0074373588   4.0788586      723.54484     -90.364009      633.18084    
    206000   315.07069      0.0074373588   5.0829404      781.69905     -94.220649      687.47841    
    207000   306.81681      0.0074373588   3.9552856      761.22096     -93.140187      668.08077    
    208000   293.74762      0.0074373588   1.2341858      728.79595     -97.363105      631.43285    
    209000   299.57349      0.0074373588   1.8222812      743.25008     -91.166744      652.08334    
    210000   312.96022      0.0074373588   3.6040775      776.46294     -92.36331       684.09963    
    211000   310.50668      0.0074373588   5.7643627      770.37564     -98.44768       671.92796    
    212000   298.41453      0.0074373588   5.9052824      740.37468     -95.74077       644.63391    
    213000   281.0018       0.0074373588   2.2420407      697.17321     -96.726685      600.44653    
    214000   299.87918      0.0074373588   2.4830315      744.00852     -91.895812      652.11271    
    215000   303.78643      0.0074373588   4.2133917      753.7025      -94.099581      659.60292    
    216000   288.66245      0.0074373588   4.9500852      716.1795      -92.500385      623.67911    
    217000   289.90041      0.0074373588   2.3683783      719.2509      -93.585058      625.66584    
    218000   305.09222      0.0074373588   1.3650996      756.94221     -90.170444      666.77177    
    219000   301.15285      0.0074373588   6.4933652      747.16852     -91.46079       655.70773    
    220000   299.41928      0.0074373588   3.6308341      742.8675      -94.264477      648.60302    
    221000   301.26721      0.0074373588   1.4750005      747.45226     -90.653796      656.79846    
    222000   302.70348      0.0074373588   0.65608495     751.01567     -89.736447      661.27922    
    223000   305.6105       0.0074373588   4.5208296      758.22807     -97.235862      660.99221    
    224000   298.64434      0.0074373588   5.3705983      740.94483     -99.622681      641.32215    
    225000   301.14611      0.0074373588   3.6556608      747.1518      -92.029865      655.12193    
    226000   295.93833      0.0074373588   3.6533406      734.23115     -94.353352      639.8778     
    227000   303.32713      0.0074373588   3.4911744      752.56298     -88.911265      663.65172    
    228000   308.77496      0.0074373588   3.7228099      766.0792      -91.441903      674.6373     
    229000   302.73616      0.0074373588   5.820506       751.09676     -93.457393      657.63936    
    230000   306.87589      0.0074373588   4.6017991      761.36755     -94.438199      666.92935    
    231000   302.04919      0.0074373588   3.676371       749.39237     -92.089595      657.30277    
    232000   293.66787      0.0074373588   4.215234       728.59809     -91.393633      637.20446    
    233000   294.0356       0.0074373588   3.2084535      729.51042     -89.957764      639.55266    
    234000   296.66713      0.0074373588   2.7285657      736.03934     -87.949008      648.09033    
    235000   303.69963      0.0074373588   3.8919537      753.48714     -87.45055       666.03659    
    236000   296.69973      0.0074373588   3.8522967      736.12021     -89.85309       646.26712    
    237000   295.5179       0.0074373588   6.0388635      733.18805     -89.341993      643.84606    
    238000   300.39733      0.0074373588   3.4982841      745.29405     -85.942564      659.35149    
    239000   303.52578      0.0074373588   2.6377487      753.05583     -83.126218      669.92962    
    240000   297.06314      0.0074373588   6.3428025      737.02183     -86.270637      650.75119    
    241000   305.49307      0.0074373588   5.8525662      757.93674     -89.26581       668.67093    
    242000   297.2929       0.0074373588   3.4104725      737.59187     -85.408206      652.18367    
    243000   306.73155      0.0074373588   2.1664856      761.00942     -87.497674      673.51175    
    244000   296.29277      0.0074373588   5.1637943      735.11053     -87.288434      647.8221     
    245000   302.284        0.0074373588   6.1315375      749.97494     -88.169883      661.80505    
    246000   282.30246      0.0074373588   3.4765676      700.4002      -87.148531      613.25167    
    247000   302.19478      0.0074373588   2.8883049      749.75359     -88.139418      661.61417    
    248000   307.69083      0.0074373588   5.0536445      763.38944     -90.332049      673.05739    
    249000   292.57203      0.0074373588   2.7695424      725.87928     -90.530615      635.34866    
    250000   297.07321      0.0074373588  -0.19451514     737.04683     -89.380496      647.66634    
    251000   296.74974      0.0074373588   2.8083728      736.24429     -90.43916       645.80513    
    252000   313.36673      0.0074373588   7.2369016      777.47149     -91.39072       686.08077    
    253000   302.44773      0.0074373588   11.279186      750.38115     -92.377354      658.0038     
    254000   292.2408       0.0074373588   0.95355366     725.05748     -95.059643      629.99784    
    255000   296.36467      0.0074373588  -4.6726404      735.28891     -87.493172      647.79574    
    256000   318.90695      0.0074373588   5.2534254      791.21693     -91.980505      699.23642    
    257000   296.73491      0.0074373588   6.108946       736.20748     -97.412193      638.79529    
    258000   293.96026      0.0074373588   2.9910696      729.32352     -90.229502      639.09402    
    259000   308.72524      0.0074373588   2.3809587      765.95582     -91.06937       674.88645    
    260000   304.96632      0.0074373588   5.1264897      756.62985     -95.416175      661.21367    
    261000   293.90209      0.0074373588   4.4153222      729.17917     -95.067588      634.11159    
    262000   303.05546      0.0074373588   1.8662165      751.88894     -96.149441      655.7395     
    263000   307.45552      0.0074373588   10.816236      762.80561     -97.719477      665.08614    
    264000   290.51808      0.0074373588   5.5216952      720.78338     -94.573169      626.21021    
    265000   295.31666      0.0074373588  -4.0270638      732.68878     -91.954043      640.73474    
    266000   310.53913      0.0074373588   1.2372369      770.45613     -92.367985      678.08815    
    267000   298.55036      0.0074373588   8.8745915      740.71167     -91.397298      649.31438    
    268000   298.17619      0.0074373588   3.6661531      739.78335     -81.922324      657.86103    
    269000   315.30514      0.0074373588   2.5506884      782.28074     -90.259069      692.02167    
    270000   304.69722      0.0074373588   3.3189495      755.96221     -98.353782      657.60843    
    271000   297.04755      0.0074373588   9.645855       736.98316     -94.456479      642.52668    
    272000   295.62746      0.0074373588   4.2782861      733.45988     -93.673226      639.78665    
    273000   296.35645      0.0074373588   1.5890782      735.26852     -91.169034      644.09948    
    274000   302.6464       0.0074373588   3.1433725      750.87405     -93.261034      657.61302    
    275000   300.4612       0.0074373588   3.9923761      745.45252     -91.746669      653.70585    
    276000   295.84362      0.0074373588   4.9327607      733.99618     -97.770459      636.22572    
    277000   308.60745      0.0074373588   1.9505558      765.66359     -96.523974      669.13962    
    278000   303.30316      0.0074373588   4.0426708      752.5035      -95.12543       657.37807    
    279000   295.44758      0.0074373588   4.8746857      733.0136      -88.780738      644.23286    
    280000   297.54644      0.0074373588   3.2261275      738.22092     -89.660439      648.56048    
    281000   304.06383      0.0074373588   4.1152888      754.39074     -88.584973      665.80576    
    282000   303.03245      0.0074373588   3.2941485      751.83186     -86.815363      665.0165     
    283000   307.97113      0.0074373588   2.3732817      764.08486     -83.916234      680.16862    
    284000   296.13779      0.0074373588   6.3074536      734.72602     -82.638352      652.08767    
    285000   291.88073      0.0074373588   2.6960435      724.16414     -85.108733      639.05541    
    286000   312.25574      0.0074373588   2.8678581      774.71509     -83.232945      691.48215    
    287000   304.33549      0.0074373588   4.404073       755.06473     -81.376406      673.68833    
    288000   292.60101      0.0074373588   4.2646606      725.95118     -83.440575      642.51061    
    289000   304.11122      0.0074373588   3.8732532      754.50833     -84.680953      669.82737    
    290000   305.81843      0.0074373588   4.3035891      758.74395     -79.585185      679.15876    
    291000   298.26089      0.0074373588   5.0585479      739.99348     -81.806626      658.18685    
    292000   293.54344      0.0074373588   4.3425044      728.28937     -79.212906      649.07647    
    293000   309.52411      0.0074373588   3.1414968      767.93785     -82.320322      685.61753    
    294000   311.29065      0.0074373588   3.7018988      772.32069     -86.593618      685.72707    
    295000   301.92835      0.0074373588   5.7643273      749.09255     -81.403147      667.68941    
    296000   284.71323      0.0074373588   4.8259466      706.38136     -84.268222      622.11314    
    297000   297.47103      0.0074373588   2.2442101      738.03383     -80.912313      657.12152    
    298000   311.23558      0.0074373588   4.9067096      772.18404     -79.851049      692.33299    
    299000   311.47004      0.0074373588   4.557887       772.76576     -80.996095      691.76967    
    300000   305.41053      0.0074373588   5.7594982      757.73195     -83.308275      674.42368    
    301000   296.67924      0.0074373588   4.9085466      736.06936     -86.541249      649.52811    
    302000   295.69967      0.0074373588   1.6679807      733.63903     -91.676569      641.96246    
    303000   303.10535      0.0074373588   3.4917195      752.01273     -82.390683      669.62204    
    304000   297.09933      0.0074373588   4.4134554      737.11163     -81.599417      655.51221    
    305000   298.80245      0.0074373588   4.5904691      741.3371      -72.370574      668.96653    
    306000   309.32861      0.0074373588   1.7915676      767.4528      -81.177935      686.27486    
    307000   308.05969      0.0074373588   4.1429207      764.30459     -77.033647      687.27094    
    308000   295.063        0.0074373588   5.1575474      732.05943     -86.282411      645.77702    
    309000   291.62358      0.0074373588   0.37822795     723.52614     -86.343499      637.18264    
    310000   311.59658      0.0074373588   2.4393572      773.0797      -81.306628      691.77307    
    311000   313.75111      0.0074373588   4.3088171      778.42516     -87.608149      690.81701    
    312000   285.38587      0.0074373588   6.8040026      708.05022     -84.679309      623.37091    
    313000   298.57881      0.0074373588   4.0362027      740.78227     -87.104701      653.67757    
    314000   311.58631      0.0074373588   0.35516178     773.05423     -84.185323      688.8689     
    315000   306.19653      0.0074373588   2.3337739      759.68204     -84.051867      675.63017    
    316000   296.10191      0.0074373588   12.477547      734.637       -83.117984      651.51902    
    317000   294.10148      0.0074373588   3.4085491      729.67387     -90.075218      639.59866    
    318000   297.49021      0.0074373588   1.1110096      738.0814      -88.596253      649.48515    
    319000   305.92905      0.0074373588   6.9890399      759.01841     -84.697489      674.32093    
    320000   305.27188      0.0074373588   6.4064941      757.38794     -81.588665      675.79928    
    321000   315.21481      0.0074373588   8.8536193      782.05664     -86.702295      695.35435    
    322000   297.35464      0.0074373588   4.7669944      737.74507     -82.352219      655.39285    
    323000   293.19241      0.0074373588   0.77710265     727.41844     -80.948852      646.46959    
    324000   315.30154      0.0074373588   10.862517      782.2718      -81.722644      700.54916    
    325000   299.6134       0.0074373588   3.9653147      743.34909     -80.53413       662.81496    
    326000   298.5371       0.0074373588   3.3538447      740.67878     -80.72486       659.95392    
    327000   291.86136      0.0074373588   4.2267053      724.11607     -77.914183      646.20189    
    328000   285.358        0.0074373588   2.8549995      707.98107     -76.169914      631.81115    
    329000   296.78644      0.0074373588   1.3378667      736.33534     -76.576729      659.75861    
    330000   318.45747      0.0074373588   4.6355041      790.10176     -79.616978      710.48479    
    331000   298.92624      0.0074373588   6.489893       741.64425     -79.849802      661.79444    
    332000   288.28542      0.0074373588   4.6646158      715.24406     -81.331282      633.91278    
    333000   297.94359      0.0074373588   3.50748        739.20626     -81.515177      657.69108    
    334000   298.56729      0.0074373588   2.7520964      740.75367     -83.712169      657.0415     
    335000   315.08858      0.0074373588   3.0342992      781.74346     -82.355143      699.38832    
    336000   293.18392      0.0074373588   4.681189       727.39739     -83.065942      644.33145    
    337000   295.29225      0.0074373588   3.5676149      732.62822     -83.317744      649.31048    
    338000   308.69548      0.0074373588   3.8884538      765.88201     -81.21049       684.67152    
    339000   299.01141      0.0074373588   3.8746403      741.85556     -78.212974      663.64258    
    340000   296.32696      0.0074373588   2.3378439      735.19535     -81.458027      653.73732    
    341000   295.93298      0.0074373588   3.3833188      734.21789     -83.340408      650.87748    
    342000   296.57313      0.0074373588   6.4399362      735.80611     -75.637486      660.16863    
    343000   308.29089      0.0074373588   4.2662547      764.8782      -76.050086      688.82811    
    344000   300.92862      0.0074373588   3.7860627      746.6122      -70.599236      676.01297    
    345000   303.93091      0.0074373588   3.0385985      754.06096     -70.153484      683.90748    
    346000   300.06309      0.0074373588   0.42942489     744.46479     -71.663342      672.80145    
    347000   299.49483      0.0074373588   4.8565895      743.05493     -72.676443      670.37849    
    348000   314.40664      0.0074373588   3.3155765      780.05153     -72.518176      707.53335    
    349000   280.52695      0.0074373588  -0.7200172      695.99509     -71.659766      624.33533    
    350000   292.49579      0.0074373588   4.4340293      725.69012     -72.208074      653.48205    
    351000   304.02309      0.0074373588   4.6348468      754.28965     -71.894842      682.39481    
    352000   305.18686      0.0074373588   3.943682       757.17701     -72.553234      684.62378    
    353000   298.20528      0.0074373588   1.9588461      739.85552     -74.785715      665.06981    
    354000   291.95878      0.0074373588   4.5215869      724.35777     -76.245875      648.11189    
    355000   313.98702      0.0074373588   4.1024237      779.01044     -72.615325      706.39511    
    356000   302.79702      0.0074373588   2.8511994      751.24776     -71.88891       679.35885    
    357000   304.13276      0.0074373588   3.4754382      754.56176     -74.763839      679.79792    
    358000   297.36687      0.0074373588   8.5418221      737.77541     -70.660091      667.11532    
    359000   308.1509       0.0074373588   6.3308765      764.53087     -73.56934       690.96153    
    360000   300.33432      0.0074373588   3.4011274      745.13773     -71.974791      673.16294    
    361000   292.29896      0.0074373588   3.6276233      725.20177     -71.422923      653.77885    
    362000   305.61794      0.0074373588   3.9522295      758.24653     -68.286314      689.96021    
    363000   309.16723      0.0074373588   4.7252009      767.05241     -69.540183      697.51223    
    364000   290.74925      0.0074373588   4.1871755      721.3569      -72.360673      648.99623    
    365000   293.63285      0.0074373588   1.3689854      728.5112      -72.747563      655.76364    
    366000   314.39162      0.0074373588   0.84818548     780.01427     -72.501179      707.51309    
    367000   309.77374      0.0074373588   2.4040843      768.55719     -74.827315      693.72987    
    368000   304.80122      0.0074373588   5.161339       756.22023     -72.352703      683.86753    
    369000   287.6797       0.0074373588   5.4442038      713.74127     -74.483632      639.25763    
    370000   302.29075      0.0074373588   3.7370849      749.99168     -72.783939      677.20774    
    371000   303.16668      0.0074373588   2.5836619      752.16489     -76.455841      675.70905    
    372000   298.50513      0.0074373588   6.9216998      740.59945     -68.164145      672.4353     
    373000   297.23829      0.0074373588   4.976041       737.4564      -72.379348      665.07705    
    374000   303.48841      0.0074373588   1.829239       752.96312     -72.371837      680.59128    
    375000   300.8942       0.0074373588   4.1133874      746.52682     -73.415743      673.11107    
    376000   304.65012      0.0074373588   5.2133565      755.84535     -70.719974      685.12537    
    377000   300.05033      0.0074373588   6.0858472      744.43313     -67.577679      676.85545    
    378000   296.45211      0.0074373588   5.5151421      735.50586     -73.9787        661.52716    
    379000   301.78772      0.0074373588   1.7128799      748.74365     -70.337223      678.40643    
    380000   309.66041      0.0074373588   4.942303       768.27602     -69.901534      698.37449    
    381000   296.40607      0.0074373588   6.5058925      735.39164     -68.560183      666.83146    
    382000   296.12159      0.0074373588   5.0245353      734.68582     -71.457022      663.2288     
    383000   292.23311      0.0074373588   1.3805762      725.0384      -65.404385      659.63401    
    384000   305.3195       0.0074373588  -0.20782361     757.50611     -64.866565      692.63954    
    385000   306.51411      0.0074373588   7.3826174      760.46995     -59.686927      700.78302    
    386000   294.96142      0.0074373588   2.4309792      731.80741     -63.040346      668.76706    
    387000   304.44241      0.0074373588  -4.0200096      755.33001     -61.896782      693.43323    
    388000   302.01966      0.0074373588   2.8827215      749.3191      -69.449747      679.86935    
    389000   306.58446      0.0074373588   6.5671865      760.6445      -62.737071      697.90743    
    390000   310.68921      0.0074373588   8.9190166      770.82849     -58.534641      712.29385    
    391000   279.05258      0.0074373588   3.837196       692.33713     -60.058064      632.27907    
    392000   291.80094      0.0074373588  -0.86348641     723.96618     -61.42023       662.54595    
    393000   307.82614      0.0074373588   3.3626637      763.72513     -62.033872      701.69126    
    394000   304.64595      0.0074373588   6.7568433      755.835       -62.889441      692.94556    
    395000   295.09251      0.0074373588   3.9522582      732.13265     -59.109493      673.02316    
    396000   296.81913      0.0074373588  -0.62357974     736.41646     -59.184719      677.23174    
    397000   309.31108      0.0074373588   3.167531       767.40932     -60.39238       707.01694    
    398000   300.3231       0.0074373588   7.3415773      745.1099      -62.407036      682.70286    
    399000   283.54515      0.0074373588   6.0297423      703.48334     -62.145996      641.33734    
    400000   295.61472      0.0074373588   2.4869295      733.42827     -62.172813      671.25545    
    401000   304.87838      0.0074373588   3.4140484      756.41167     -57.53485       698.87682    
    402000   297.48035      0.0074373588   3.6398599      738.05696     -59.652217      678.40474    
    403000   293.25822      0.0074373588   5.4120291      727.58174     -58.0753        669.50644    
    404000   299.6632       0.0074373588   4.2104142      743.47267     -59.949443      683.52322    
    405000   292.16501      0.0074373588   3.1727027      724.86945     -57.25141       667.61804    
    406000   303.83001      0.0074373588   5.1568472      753.81063     -58.85207       694.95856    
    407000   307.8793       0.0074373588   3.5024693      763.85703     -61.237277      702.61975    
    408000   314.71065      0.0074373588   4.5407611      780.80579     -65.619699      715.18609    
    409000   297.06401      0.0074373588   4.0901799      737.02401     -64.14655       672.87746    
    410000   295.80287      0.0074373588   4.5284681      733.89508     -56.332082      677.563      
    411000   309.94376      0.0074373588   4.2360989      768.97902     -58.290323      710.6887     
    412000   304.24394      0.0074373588   3.6904037      754.8376      -59.655124      695.18248    
    413000   288.95005      0.0074373588   5.1537719      716.89304     -58.036335      658.8567     
    414000   300.41219      0.0074373588   4.2626697      745.33093     -55.444307      689.88662    
    415000   299.42212      0.0074373588   3.7000851      742.87453     -56.501605      686.37292    
    416000   310.75484      0.0074373588   4.154665       770.99134     -56.885755      714.10558    
    417000   302.34841      0.0074373588   3.8529055      750.13475     -53.275549      696.8592     
    418000   291.92328      0.0074373588   3.831158       724.2697      -55.862555      668.40715    
    419000   321.66094      0.0074373588   4.3112319      798.04965     -56.122337      741.92731    
    420000   301.89964      0.0074373588   5.0966587      749.02132     -54.345425      694.67589    
    421000   280.25947      0.0074373588   3.7226803      695.33147     -54.891575      640.4399     
    422000   307.62308      0.0074373588   2.8902041      763.22133     -56.090387      707.13094    
    423000   316.26839      0.0074373588   4.170845       784.67058     -58.199424      726.47116    
    424000   294.26177      0.0074373588   3.6575587      730.07157     -54.557319      675.51425    
    425000   295.2812       0.0074373588   4.4176257      732.60079     -51.560694      681.04009    
    426000   301.26799      0.0074373588   4.486716       747.45419     -51.534581      695.91961    
    427000   293.74187      0.0074373588   3.9939188      728.78168     -52.318699      676.46298    
    428000   296.3798       0.0074373588   2.0903005      735.32645     -55.190951      680.1355     
    429000   281.13306      0.0074373588   2.7616582      697.49888     -50.947498      646.55138    
    430000   302.2476       0.0074373588   5.5219983      749.88462     -50.569433      699.31519    
    431000   319.37645      0.0074373588   6.5252126      792.38178     -50.868847      741.51293    
    432000   299.36934      0.0074373588   2.0462794      742.74358     -50.529646      692.21394    
    433000   288.03901      0.0074373588   10.00052       714.63272     -56.842314      657.79041    
    434000   306.26235      0.0074373588   2.8239679      759.84532     -52.272258      707.57307    
    435000   297.14259      0.0074373588   3.7408615      737.21896     -54.549904      682.66905    
    436000   310.4523       0.0074373588   12.909937      770.2407      -52.528556      717.71215    
    437000   292.094        0.0074373588   1.5238219      724.69327     -50.456172      674.23709    
    438000   299.60491      0.0074373588   1.5121107      743.32805     -50.54307       692.78498    
    439000   297.84665      0.0074373588   3.9588984      738.96574     -54.966072      683.99967    
    440000   297.45131      0.0074373588   11.232414      737.9849      -53.504698      684.4802     
    441000   308.41148      0.0074373588  -3.2601035      765.17739     -53.008348      712.16904    
    442000   309.06835      0.0074373588   2.5856723      766.8071      -52.040022      714.76708    
    443000   308.26776      0.0074373588   11.598975      764.82081     -47.123587      717.69722    
    444000   297.99574      0.0074373588  -0.15830608     739.33565     -49.134957      690.2007     
    445000   303.43591      0.0074373588   7.5249443      752.83287     -50.668271      702.1646     
    446000   306.01797      0.0074373588   5.6869906      759.23902     -46.112555      713.12647    
    447000   303.63733      0.0074373588  -0.51420544     753.33258     -45.696334      707.63624    
    448000   286.02972      0.0074373588   0.092687269    709.64761     -49.672215      659.9754     
    449000   301.2467       0.0074373588   6.5238325      747.40136     -46.257187      701.14418    
    450000   311.24289      0.0074373588   3.9138994      772.20218     -49.74705       722.45513    
    451000   289.9902       0.0074373588   2.9483546      719.47368     -46.418178      673.0555     
    452000   300.08524      0.0074373588   8.5318704      744.51976     -40.744591      703.77517    
    453000   311.73757      0.0074373588   5.0904371      773.42951     -46.02339       727.40612    
    454000   309.5648       0.0074373588  -1.5985509      768.03881     -44.387952      723.65086    
    455000   292.55706      0.0074373588   4.8301272      725.84213     -46.903574      678.93856    
    456000   288.68088      0.0074373588   6.1286537      716.22523     -47.773871      668.45136    
    457000   315.66222      0.0074373588  -0.56221034     783.16668     -48.968905      734.19777    
    458000   299.90069      0.0074373588   3.4153312      744.06187     -49.479679      694.58219    
    459000   292.26         0.0074373588   7.2989638      725.10511     -50.282239      674.82287    
    460000   314.42669      0.0074373588  -0.56906305     780.10128     -49.934462      730.16682    
    461000   306.73792      0.0074373588   3.2050047      761.02525     -53.0673        707.95795    
    462000   299.39369      0.0074373588   8.2779077      742.80399     -53.905895      688.8981     
    463000   298.17641      0.0074373588   9.4061074      739.7839      -52.472511      687.31139    
    464000   307.83893      0.0074373588  -0.26404097     763.75688     -52.08461       711.67227    
    465000   307.11952      0.0074373588   3.484397       761.97201     -51.517789      710.45422    
    466000   292.44475      0.0074373588   2.5875716      725.56349     -51.034712      674.52878    
    467000   284.82824      0.0074373588   6.5692965      706.66671     -52.834915      653.8318     
    468000   298.25049      0.0074373588   4.5595908      739.9677      -49.827726      690.13997    
    469000   306.58625      0.0074373588   3.4885452      760.64894     -53.427214      707.22172    
    470000   301.87369      0.0074373588   3.1756566      748.95694     -58.898994      690.05795    
    471000   296.19486      0.0074373588   4.827647       734.86762     -55.055064      679.81256    
    472000   307.25627      0.0074373588   4.0675709      762.31127     -52.876989      709.43428    
    473000   299.71939      0.0074373588   4.3421624      743.61208     -53.187851      690.42423    
    474000   296.04407      0.0074373588   7.5878494      734.4935      -47.979701      686.5138     
    475000   299.42067      0.0074373588   1.8847267      742.87094     -47.867961      695.00298    
    476000   305.20256      0.0074373588   6.718823       757.21596     -51.033476      706.18248    
    477000   295.02789      0.0074373588   4.8863323      731.97232     -48.335155      683.63716    
    478000   303.61731      0.0074373588   1.4869705      753.28292     -48.982822      704.3001     
    479000   301.93256      0.0074373588   2.7091762      749.103       -44.788676      704.31433    
    480000   303.6763       0.0074373588   5.3111618      753.42926     -50.769542      702.65972    
    481000   310.6706       0.0074373588   6.629466       770.78232     -49.774743      721.00758    
    482000   290.54621      0.0074373588   3.2912307      720.85317     -52.45653       668.39664    
    483000   289.2162       0.0074373588   1.3581431      717.55336     -49.609099      667.94426    
    484000   312.49336      0.0074373588  -0.15195656     775.30463     -52.146058      723.15858    
    485000   309.92697      0.0074373588   4.5523024      768.93735     -49.365659      719.57169    
    486000   294.3011       0.0074373588   4.1919127      730.16914     -53.161548      677.0076     
    487000   299.50703      0.0074373588   3.9343538      743.08519     -52.776398      690.30879    
    488000   296.83859      0.0074373588   3.1855297      736.46473     -51.998379      684.46635    
    489000   313.84893      0.0074373588   3.3861097      778.66786     -53.954144      724.71371    
    490000   309.60604      0.0074373588   4.8247663      768.14112     -45.175865      722.96525    
    491000   298.11017      0.0074373588   5.0039637      739.61954     -48.862792      690.75675    
    492000   299.26188      0.0074373588   3.7430633      742.47696     -52.673356      689.80361    
    493000   299.09044      0.0074373588   3.9916148      742.05163     -51.587785      690.46384    
    494000   306.43882      0.0074373588   3.400628       760.28316     -51.232043      709.05111    
    495000   302.18244      0.0074373588   3.8711479      749.72297     -49.016394      700.70657    
    496000   293.63231      0.0074373588   3.8020266      728.50987     -48.202987      680.30688    
    497000   302.69728      0.0074373588   4.1092347      751.0003      -50.819454      700.18084    
    498000   299.98548      0.0074373588   4.0559438      744.27225     -51.938737      692.33351    
    499000   292.15642      0.0074373588   4.252603       724.84814     -53.286904      671.56123    
    500000   296.28657      0.0074373588   5.052688       735.09514     -57.010941      678.08419    
    501000   295.13385      0.0074373588  -0.1581277      732.23521     -50.638872      681.59634    
    502000   301.38758      0.0074373588   4.7889052      747.7509      -49.136616      698.61428    
    503000   293.69594      0.0074373588   6.4283281      728.66773     -49.722289      678.94544    
    504000   302.20334      0.0074373588   1.8791277      749.77483     -47.948172      701.82666    
    505000   302.4383       0.0074373588   8.7638518      750.35775     -49.463218      700.89453    
    506000   297.24117      0.0074373588   4.4305416      737.46353     -51.221274      686.24226    
    507000   307.5381       0.0074373588   0.30128464     763.01051     -44.367167      718.64334    
    508000   306.52679      0.0074373588   4.6529182      760.50143     -41.885174      718.61625    
    509000   285.55917      0.0074373588   4.5452641      708.48018     -43.229532      665.25065    
    510000   301.2477       0.0074373588   3.8755005      747.40385     -45.834792      701.56906    
    511000   317.47708      0.0074373588   4.1349422      787.66938     -41.857553      745.81183    
    512000   292.57832      0.0074373588   2.6260674      725.89489     -38.554971      687.33991    
    513000   305.55359      0.0074373588   5.2308421      758.08688     -40.679103      717.40777    
    514000   306.61101      0.0074373588   4.7010396      760.71037     -42.91902       717.79135    
    515000   307.98784      0.0074373588   2.8083313      764.12633     -41.157956      722.96838    
    516000   281.26209      0.0074373588   5.0112233      697.819       -39.815001      658.00399    
    517000   286.91352      0.0074373588   4.7967485      711.84036     -42.658325      669.18203    
    518000   305.98155      0.0074373588   4.3661792      759.14865     -45.903829      713.24483    
    519000   307.87248      0.0074373588   3.9209095      763.84011     -41.321572      722.51854    
    520000   294.95415      0.0074373588   1.4832783      731.78938     -43.224853      688.56453    
    521000   283.53962      0.0074373588   6.7826955      703.46962     -46.781954      656.68767    
    522000   316.46113      0.0074373588   10.93941       785.14879     -47.857102      737.29169    
    523000   306.46019      0.0074373588   5.4900661      760.33619     -39.124984      721.21121    
    524000   284.66135      0.0074373588  -2.6039231      706.25267     -42.995998      663.25667    
    525000   290.73892      0.0074373588   5.4131049      721.33128     -46.040762      675.29052    
    526000   321.27536      0.0074373588   4.540973       797.09303     -47.442821      749.65021    
    527000   309.30992      0.0074373588   1.8443605      767.40644     -47.297871      720.10857    
    528000   286.6377       0.0074373588   3.024502       711.15602     -47.798667      663.35736    
    529000   299.5251       0.0074373588   6.60904        743.13003     -49.364935      693.76509    
    530000   308.30641      0.0074373588   3.5937379      764.91671     -48.166032      716.75067    
    531000   299.71306      0.0074373588   1.7606741      743.59636     -47.823317      695.77304    
    532000   295.79817      0.0074373588   2.8767462      733.88341     -42.984749      690.89867    
    533000   301.77849      0.0074373588   2.9068341      748.72075     -45.794436      702.92631    
    534000   312.19758      0.0074373588   4.1323063      774.5708      -45.210745      729.36006    
    535000   296.23303      0.0074373588   6.2931408      734.96231     -48.16134       686.80097    
    536000   287.11517      0.0074373588   3.3835787      712.34065     -45.887726      666.45292    
    537000   294.79733      0.0074373588   1.6939611      731.4003      -48.046728      683.35357    
    538000   319.96937      0.0074373588   4.5434798      793.85284     -43.979314      749.87352    
    539000   294.95913      0.0074373588   7.5212751      731.80173     -42.368686      689.43304    
    540000   294.73735      0.0074373588   2.5226483      731.25149     -41.774871      689.47662    
    541000   291.92454      0.0074373588   1.2407461      724.27284     -43.193588      681.07925    
    542000   295.69874      0.0074373588  -0.14362749     733.63672     -39.002093      694.63462    
    543000   303.80797      0.0074373588  -0.94788274     753.75596     -39.967843      713.78812    
    544000   313.33065      0.0074373588   6.2777739      777.38198     -38.79801       738.58397    
    545000   308.13434      0.0074373588   13.753798      764.48979     -36.347295      728.14249    
    546000   298.40188      0.0074373588   4.7199998      740.34328     -37.093133      703.25015    
    547000   302.32457      0.0074373588   4.1044612      750.0756      -38.57374       711.50186    
    548000   302.85132      0.0074373588   2.7652612      751.38248     -39.229819      712.15266    
    549000   315.73158      0.0074373588   2.6268403      783.33875     -36.590417      746.74834    
    550000   307.79072      0.0074373588   6.4121858      763.63726     -38.696984      724.94027    
    551000   300.85863      0.0074373588   9.3538481      746.43856     -36.77372       709.66484    
    552000   307.93401      0.0074373588   7.1635299      763.99276     -36.814453      727.17831    
    553000   303.5986       0.0074373588   4.0519299      753.23651     -38.777662      714.45884    
    554000   294.98492      0.0074373588   1.2255743      731.86573     -42.484866      689.38086    
    555000   301.56108      0.0074373588   4.1976624      748.18135     -41.523918      706.65743    
    556000   307.21971      0.0074373588   6.0609999      762.22056     -37.945501      724.27506    
    557000   318.24828      0.0074373588   3.8797753      789.58276     -36.650221      752.93254    
    558000   302.48002      0.0074373588   4.6103837      750.46126     -36.519197      713.94206    
    559000   307.87836      0.0074373588   4.4364283      763.85471     -33.295975      730.55873    
    560000   287.18096      0.0074373588   3.8068896      712.50388     -34.963305      677.54057    
    561000   301.85765      0.0074373588   4.1033533      748.91715     -35.018913      713.89824    
    562000   301.41003      0.0074373588   3.9169621      747.8066      -38.556759      709.24984    
    563000   295.27217      0.0074373588   3.7710095      732.57839     -37.024765      695.55362    
    564000   296.97664      0.0074373588   4.0874107      736.80723     -34.345687      702.46154    
    565000   309.12448      0.0074373588   3.2610357      766.94636     -33.312028      733.63433    
    566000   312.5551       0.0074373588   4.04372        775.45782     -32.18909       743.26873    
    567000   296.22006      0.0074373588   3.172351       734.93012     -34.680662      700.24946    
    568000   302.89206      0.0074373588   3.9747096      751.48355     -34.003509      717.48004    
    569000   302.48145      0.0074373588   3.7490779      750.46481     -38.380485      712.08433    
    570000   294.86173      0.0074373588   4.6543456      731.56009     -31.907887      699.65221    
    571000   310.78715      0.0074373588   3.8600527      771.07149     -35.135348      735.93614    
    572000   296.50682      0.0074373588   2.8135424      735.64159     -37.891652      697.74994    
    573000   287.52552      0.0074373588   4.6318296      713.35875     -32.050525      681.30823    
    574000   314.45803      0.0074373588   5.3122602      780.17904     -31.33751       748.84153    
    575000   306.95018      0.0074373588   1.54209        761.55187     -31.453152      730.09872    
    576000   288.24367      0.0074373588   3.5780369      715.14049     -30.28489       684.85561    
    577000   293.29779      0.0074373588   5.5388873      727.67989     -31.569492      696.1104     
    578000   306.39381      0.0074373588   0.64099605     760.17148     -32.09424       728.07724    
    579000   302.52744      0.0074373588   4.4120643      750.57891     -36.600566      713.97834    
    580000   294.85315      0.0074373588   5.6118552      731.53879     -37.173468      694.36532    
    581000   296.58447      0.0074373588   5.1507741      735.83424     -36.753803      699.08044    
    582000   307.10397      0.0074373588   1.3236395      761.93342     -34.699406      727.23401    
    583000   293.73055      0.0074373588   2.667866       728.75359     -30.302569      698.45102    
    584000   291.194        0.0074373588   3.5932308      722.46034     -33.377609      689.08273    
    585000   292.73301      0.0074373588   5.7483602      726.27867     -25.792422      700.48625    
    586000   310.48291      0.0074373588   4.5386108      770.31665     -30.340465      739.97618    
    587000   313.47432      0.0074373588   4.5571487      777.73844     -34.139802      743.59863    
    588000   296.09862      0.0074373588   3.9159672      734.62885     -30.241358      704.38749    
    589000   289.5725       0.0074373588   2.8876933      718.43735     -29.511963      688.92538    
    590000   311.09378      0.0074373588   4.5235722      771.83225     -29.329307      742.50294    
    591000   308.704        0.0074373588   3.6211813      765.90314     -28.121785      737.78135    
    592000   299.20764      0.0074373588   4.0289966      742.34239     -28.775529      713.56687    
    593000   290.79327      0.0074373588   4.2333089      721.46613     -33.002788      688.46334    
    594000   306.60932      0.0074373588   4.1939029      760.70617     -34.374216      726.33195    
    595000   303.87873      0.0074373588   4.2574378      753.93151     -29.210126      724.72138    
    596000   298.39132      0.0074373588   5.7384364      740.3171      -31.383966      708.93313    
    597000   289.35182      0.0074373588   3.2731932      717.88983     -25.738318      692.15151    
    598000   301.25762      0.0074373588   4.8655367      747.42847     -25.0996        722.32887    
    599000   302.32576      0.0074373588   6.6832988      750.07854     -27.24115       722.83739    
    600000   295.61743      0.0074373588   2.9883301      733.435       -28.299622      705.13537    
    601000   297.19213      0.0074373588   1.7180667      737.34188     -29.014317      708.32756    
    602000   310.7163       0.0074373588   4.0511824      770.8957      -31.708472      739.18723    
    603000   308.57874      0.0074373588   8.7675798      765.59236     -31.314116      734.27825    
    604000   291.27413      0.0074373588   5.0705579      722.65916     -34.144392      688.51476    
    605000   293.10953      0.0074373588   0.48119956     727.21282     -34.334683      692.87814    
    606000   312.01189      0.0074373588   1.9090711      774.1101      -33.782768      740.32733    
    607000   290.34674      0.0074373588   4.9596148      720.35827     -35.363987      684.99429    
    608000   290.15507      0.0074373588   4.2797054      719.88274     -32.168671      687.71406    
    609000   307.21512      0.0074373588   3.1710308      762.20919     -29.443901      732.76529    
    610000   302.69186      0.0074373588   3.6354217      750.98686     -32.201605      718.78525    
    611000   299.22774      0.0074373588   6.0276705      742.39228     -32.733133      709.65914    
    612000   299.91352      0.0074373588   5.5550725      744.09372     -29.18089       714.91283    
    613000   296.16479      0.0074373588   4.4513429      734.79302     -29.36207       705.43095    
    614000   299.19032      0.0074373588   2.8835707      742.29944     -30.769761      711.52968    
    615000   312.23362      0.0074373588   3.8237138      774.66022     -30.011111      744.64911    
    616000   311.51563      0.0074373588   3.3825618      772.87887     -28.884433      743.99443    
    617000   309.70702      0.0074373588   5.5615891      768.39166     -29.684651      738.70701    
    618000   301.10454      0.0074373588   4.3634066      747.04867     -32.174671      714.874      
    619000   297.00713      0.0074373588   4.0731146      736.88288     -29.171583      707.71129    
    620000   304.90763      0.0074373588   4.7071868      756.48423     -29.228161      727.25607    
    621000   304.02616      0.0074373588   3.1898858      754.29729     -23.64394       730.65335    
    622000   299.47731      0.0074373588   3.7192588      743.01146     -22.767402      720.24406    
    623000   293.67537      0.0074373588   6.5858488      728.61669     -24.78131       703.83538    
    624000   307.53252      0.0074373588   3.9606113      762.99666     -27.101712      735.89495    
    625000   311.00279      0.0074373588   1.6291683      771.6065      -26.945951      744.66055    
    626000   290.71007      0.0074373588  -0.11326687     721.25971     -25.403041      695.85666    
    627000   290.74912      0.0074373588   4.6371797      721.35658     -32.728574      688.62801    
    628000   292.97908      0.0074373588   4.3641076      726.88917     -32.41906       694.47011    
    629000   318.35475      0.0074373588   2.842732       789.8469      -26.699326      763.14758    
    630000   297.03075      0.0074373588   3.4490558      736.94147     -25.885897      711.05558    
    631000   297.70862      0.0074373588   5.5269646      738.62329     -25.915146      712.70815    
    632000   305.37554      0.0074373588   2.9004818      757.64512     -26.123022      731.5221     
    633000   297.07943      0.0074373588   3.8754625      737.06226     -25.28999       711.77227    
    634000   297.24037      0.0074373588   5.4083743      737.46156     -25.622578      711.83898    
    635000   298.4777       0.0074373588   4.5870217      740.53141     -25.630348      714.90106    
    636000   301.73185      0.0074373588   2.276621       748.60504     -26.310261      722.29478    
    637000   293.28791      0.0074373588   3.9802584      727.6554      -25.254446      702.40095    
    638000   304.51381      0.0074373588   4.5042877      755.50716     -22.879218      732.62795    
    639000   302.24366      0.0074373588   3.7054548      749.87485     -23.288167      726.58668    
    640000   304.06607      0.0074373588   4.9094241      754.39631     -22.657891      731.73842    
    641000   298.80291      0.0074373588   4.6686699      741.33827     -24.308013      717.03025    
    642000   290.66683      0.0074373588   3.7103444      721.15241     -25.323955      695.82846    
    643000   300.39935      0.0074373588   3.9274845      745.29907     -24.002134      721.29693    
    644000   303.27113      0.0074373588   5.7059745      752.42404     -24.296669      728.12737    
    645000   298.932        0.0074373588   3.8600116      741.65852     -25.413096      716.24543    
    646000   280.52488      0.0074373588   3.5464257      695.98997     -29.381796      666.60818    
    647000   305.58907      0.0074373588   4.7338795      758.1749      -28.508501      729.6664     
    648000   298.94659      0.0074373588   5.2253094      741.69472     -24.40266       717.29206    
    649000   284.94829      0.0074373588   3.5824777      706.96455     -27.068609      679.89595    
    650000   293.05018      0.0074373588   3.5348965      727.06558     -26.0889        700.97668    
    651000   305.52329      0.0074373588   3.7052019      758.01171     -27.466541      730.54517    
    652000   312.70569      0.0074373588   4.1230544      775.83142     -29.350754      746.48067    
    653000   292.76678      0.0074373588   4.9323206      726.36244     -29.510163      696.85228    
    654000   288.52052      0.0074373588   3.5949631      715.82736     -35.178252      680.64911    
    655000   307.43133      0.0074373588   5.5349992      762.74562     -31.7851        730.96052    
    656000   309.21565      0.0074373588   3.7863046      767.17254     -33.899851      733.27269    
    657000   282.40363      0.0074373588   1.7876415      700.65119     -29.642463      671.00873    
    658000   303.10708      0.0074373588   5.2726447      752.01702     -28.154886      723.86214    
    659000   312.83601      0.0074373588   4.7275144      776.15477     -28.24752       747.90725    
    660000   291.60821      0.0074373588   3.602062       723.48801     -28.973962      694.51405    
    661000   300.31642      0.0074373588   2.9238115      745.09331     -28.512556      716.58075    
    662000   304.55453      0.0074373588   8.9463384      755.60819     -28.701902      726.90628    
    663000   302.72088      0.0074373588   3.2799974      751.05885     -25.34786       725.711      
    664000   287.00824      0.0074373588   2.5258083      712.07536     -24.596407      687.47895    
    665000   293.6164       0.0074373588   1.6032359      728.47038     -21.790295      706.68008    
    666000   308.93807      0.0074373588   5.625147       766.48388     -21.597803      744.88607    
    667000   315.07064      0.0074373588   3.7305632      781.69895     -21.510148      760.1888     
    668000   295.57386      0.0074373588   2.21692        733.3269      -20.035106      713.29179    
    669000   302.70352      0.0074373588   4.7695101      751.01577     -25.744167      725.27161    
    670000   306.57547      0.0074373588   4.6413721      760.62219     -25.164993      735.4572     
    671000   293.45274      0.0074373588   2.9684943      728.06433     -26.166193      701.89814    
    672000   286.75477      0.0074373588   4.0829675      711.44648     -29.877088      681.56939    
    673000   304.55611      0.0074373588   4.1556852      755.61209     -25.906187      729.70591    
    674000   298.99087      0.0074373588   4.4987945      741.8046      -27.164439      714.64016    
    675000   301.1098       0.0074373588   3.0987591      747.06172     -23.23459       723.82713    
    676000   302.91261      0.0074373588   3.8496679      751.53453     -24.582505      726.95203    
    677000   302.06836      0.0074373588   3.4921522      749.43992     -27.468621      721.9713     
    678000   290.99587      0.0074373588   3.5724139      721.96877     -23.72621       698.24256    
    679000   299.97275      0.0074373588   4.2332472      744.24066     -22.018023      722.22264    
    680000   303.03916      0.0074373588   4.5119912      751.8485      -25.055422      726.79308    
    681000   306.88162      0.0074373588   3.8210185      761.38177     -24.276322      737.10545    
    682000   301.17537      0.0074373588   2.5014703      747.22439     -26.329273      720.89512    
    683000   285.34329      0.0074373588   3.83781        707.94457     -24.643499      683.30107    
    684000   308.2081       0.0074373588   3.9529842      764.6728      -26.244356      738.42844    
    685000   306.01833      0.0074373588   4.4884172      759.23992     -27.699087      731.54083    
    686000   291.36765      0.0074373588   4.1032402      722.89117     -24.625183      698.26598    
    687000   300.983        0.0074373588   3.3799814      746.74711     -25.098273      721.64884    
    688000   300.9918       0.0074373588   3.832849       746.76896     -26.949797      719.81916    
    689000   293.27882      0.0074373588   5.2244829      727.63283     -27.148728      700.48411    
    690000   299.92034      0.0074373588   4.2585479      744.11064     -27.399768      716.71087    
    691000   309.43702      0.0074373588   2.582919       767.72177     -27.865446      739.85632    
    692000   299.05098      0.0074373588   3.7945725      741.95373     -23.297965      718.65577    
    693000   292.91657      0.0074373588   4.1635424      726.73409     -24.409441      702.32465    
    694000   311.91393      0.0074373588   3.938168       773.86705     -25.461113      748.40593    
    695000   298.4454       0.0074373588   3.7965037      740.45128     -26.234835      714.21644    
    696000   291.48125      0.0074373588   3.9393164      723.17301     -24.327756      698.84525    
    697000   310.41628      0.0074373588   2.8967325      770.15136     -26.656096      743.49526    
    698000   312.90617      0.0074373588   4.5882347      776.32883     -26.738382      749.59045    
    699000   298.00512      0.0074373588   4.4034105      739.35891     -28.430758      710.92815    
    700000   282.73211      0.0074373588   4.0354849      701.46616     -28.150786      673.31537    
    701000   305.62875      0.0074373588   4.5834255      758.27334     -24.214114      734.05923    
    702000   309.53187      0.0074373588   3.9561604      767.95709     -27.257386      740.69971    
    703000   298.66401      0.0074373588   3.8760275      740.99364     -27.609794      713.38384    
    704000   298.77         0.0074373588   4.6131173      741.25661     -22.760147      718.49647    
    705000   324.58472      0.0074373588   4.4636333      805.30363     -22.2327        783.07093    
    706000   297.9965       0.0074373588   3.6269428      739.33752     -24.490244      714.84728    
    707000   287.87297      0.0074373588   3.856298       714.22077     -22.046726      692.17404    
    708000   297.08055      0.0074373588   4.4080435      737.06504     -21.940111      715.12493    
    709000   310.50402      0.0074373588   6.4220013      770.36902     -23.763904      746.60512    
    710000   300.518        0.0074373588   2.3053309      745.59344     -19.796435      725.79701    
    711000   305.86147      0.0074373588   6.8605696      758.85074     -26.341944      732.50879    
    712000   298.01882      0.0074373588   1.2050008      739.39292     -24.924416      714.4685     
    713000   289.16571      0.0074373588   2.8606905      717.4281      -20.822832      696.60527    
    714000   304.52302      0.0074373588   4.5519589      755.53001     -19.90749       735.62252    
    715000   317.44866      0.0074373588   3.3911101      787.59888     -21.089015      766.50986    
    716000   298.06993      0.0074373588   3.3806551      739.51971     -18.05056       721.46915    
    717000   298.85698      0.0074373588   6.7419958      741.4724      -15.468483      726.00391    
    718000   302.31684      0.0074373588   3.9713781      750.05641     -18.323073      731.73333    
    719000   309.69515      0.0074373588   4.3007724      768.3622      -17.925857      750.43634    
    720000   294.13884      0.0074373588   1.8266848      729.76658     -18.56839       711.19819    
    721000   279.97054      0.0074373588   7.7964595      694.61463     -19.08437       675.53026    
    722000   312.18384      0.0074373588   5.4008313      774.53672     -18.964445      755.57228    
    723000   299.08447      0.0074373588   2.2635669      742.03681     -18.85549       723.18132    
    724000   288.9222       0.0074373588   3.4322023      716.82394     -21.048812      695.77513    
[...]
   3823000   285.01053      0.0074373588   8.3730412      707.11897     -12.871257      694.24772    
   3824000   288.28135      0.0074373588   0.69800167     715.23397     -10.90448       704.32949    
   3825000   308.8378       0.0074373588   4.2448364      766.2351      -12.248544      753.98656    
   3826000   311.00004      0.0074373588   5.2811581      771.59967     -11.393437      760.20623    
   3827000   288.49906      0.0074373588   0.3149678      715.77411     -9.263967       706.51015    
   3828000   304.99851      0.0074373588   2.3656914      756.7097      -8.2801479      748.42955    
   3829000   312.21698      0.0074373588   9.1394753      774.61893     -8.6624611      765.95647    
   3830000   299.09697      0.0074373588   9.9037986      742.06784     -11.597086      730.47075    
   3831000   291.16678      0.0074373588  -0.54889161     722.3928      -14.522839      707.86996    
   3832000   299.84308      0.0074373588   4.9762297      743.91895     -14.306729      729.61222    
   3833000   301.63813      0.0074373588   4.6138167      748.37252     -14.932063      733.44046    
   3834000   292.79658      0.0074373588   2.1870112      726.43638     -13.673739      712.76264    
   3835000   302.32773      0.0074373588   2.9243026      750.08344     -13.206016      736.87742    
   3836000   317.95705      0.0074373588   2.3893327      788.86021     -11.615097      777.24511    
   3837000   291.65488      0.0074373588   5.0480603      723.60379     -13.31388       710.28991    
   3838000   286.10875      0.0074373588   1.8330731      709.8437      -13.176054      696.66764    
   3839000   304.32         0.0074373588   2.768204       755.02631     -12.757772      742.26854    
   3840000   313.5641       0.0074373588   5.3349325      777.96119     -13.598052      764.36313    
   3841000   297.26922      0.0074373588   7.0939162      737.53314     -12.117547      725.41559    
   3842000   284.50938      0.0074373588   5.2521528      705.87561     -13.034353      692.84126    
   3843000   306.97968      0.0074373588   3.0115255      761.62504     -7.9806653      753.64438    
   3844000   302.79         0.0074373588   6.6002199      751.23033     -10.392022      740.83831    
   3845000   277.02136      0.0074373588   6.4993106      687.29762     -14.394751      672.90287    
   3846000   306.61039      0.0074373588   2.7506492      760.70884     -12.168925      748.53991    
   3847000   299.92095      0.0074373588  -0.69540248     744.11214     -13.628782      730.48336    
   3848000   301.96795      0.0074373588   4.836253       749.1908      -9.9834136      739.20738    
   3849000   302.54464      0.0074373588   7.7440553      750.62158     -11.143991      739.47759    
   3850000   295.47263      0.0074373588   3.5526125      733.07574     -11.319644      721.7561     
   3851000   292.66707      0.0074373588   0.086441272    726.11506     -14.46198       711.65308    
   3852000   310.21793      0.0074373588  -1.5671901      769.65923     -15.600842      754.05839    
   3853000   298.29873      0.0074373588   6.6003685      740.08736     -15.556249      724.53111    
   3854000   273.16875      0.0074373588   5.1796732      677.7392      -15.277934      662.46126    
   3855000   308.92288      0.0074373588   0.84630312     766.44619     -13.664351      752.78184    
   3856000   306.18821      0.0074373588   4.6914841      759.66138     -13.134907      746.52647    
   3857000   286.46532      0.0074373588   5.3069319      710.72837     -13.671228      697.05714    
   3858000   294.09026      0.0074373588   4.157562       729.64604     -17.07075       712.57528    
   3859000   304.90946      0.0074373588  -0.19850074     756.48878     -13.520402      742.96838    
   3860000   306.23928      0.0074373588   2.9244796      759.78809     -13.527441      746.26065    
   3861000   303.81111      0.0074373588   9.4304336      753.76375     -14.384115      739.37963    
   3862000   291.1172       0.0074373588   4.5966176      722.2698      -10.979192      711.29061    
   3863000   307.03334      0.0074373588   0.764724       761.75817     -11.645482      750.11269    
   3864000   317.15903      0.0074373588   5.0141096      786.8803      -13.127496      773.75281    
   3865000   289.4368       0.0074373588   6.2524548      718.10067     -10.201287      707.89938    
   3866000   294.15454      0.0074373588   2.7886835      729.80552     -13.257097      716.54842    
   3867000   303.47053      0.0074373588   3.6244551      752.91874     -11.192671      741.72607    
   3868000   312.20539      0.0074373588   4.729829       774.59017     -11.031543      763.55862    
   3869000   293.59955      0.0074373588   4.9389864      728.42858     -12.381435      716.04714    
   3870000   294.23055      0.0074373588   3.9749114      729.99412     -11.571888      718.42223    
   3871000   299.6783       0.0074373588   4.5069566      743.51012     -14.527195      728.98293    
   3872000   309.3511       0.0074373588   2.702928       767.5086      -14.279593      753.22901    
   3873000   294.32969      0.0074373588   2.9038797      730.24008     -16.067374      714.17271    
   3874000   296.89412      0.0074373588   8.9992871      736.6025      -12.328132      724.27436    
   3875000   298.17371      0.0074373588   3.6226874      739.7772      -11.826586      727.95062    
   3876000   298.66008      0.0074373588   3.6027712      740.98389     -10.795283      730.18861    
   3877000   298.11363      0.0074373588   5.8035741      739.62813     -11.924242      727.70389    
   3878000   301.96475      0.0074373588   5.4004064      749.18288     -12.044089      737.13879    
   3879000   296.93997      0.0074373588   0.33682377     736.71625     -12.885871      723.83038    
   3880000   300.41456      0.0074373588   3.2368322      745.3368      -12.640438      732.69636    
   3881000   302.56596      0.0074373588   4.7954987      750.67449     -12.231373      738.44312    
   3882000   296.13839      0.0074373588   5.7175609      734.7275      -9.1431951      725.5843     
   3883000   304.10516      0.0074373588   4.0606706      754.49329     -10.094504      744.39879    
   3884000   292.06162      0.0074373588   2.7884061      724.61294     -12.274464      712.33847    
   3885000   308.40263      0.0074373588   4.8428015      765.15542     -14.669683      750.48574    
   3886000   298.87217      0.0074373588   5.8511695      741.51009     -10.504241      731.00585    
   3887000   295.6078       0.0074373588   6.0137695      733.4111      -13.106211      720.30489    
   3888000   312.71527      0.0074373588   4.7096619      775.85521     -13.34413       762.51108    
   3889000   300.34874      0.0074373588   0.17099642     745.17351     -15.598222      729.57529    
   3890000   290.19084      0.0074373588   4.1112578      719.97148     -14.555565      705.41592    
   3891000   301.54264      0.0074373588   4.4044298      748.13559     -18.53453       729.60106    
   3892000   296.36846      0.0074373588   2.8433139      735.29831     -17.079002      718.21931    
   3893000   296.11314      0.0074373588   7.8261178      734.66487     -12.639834      722.02503    
   3894000   297.12551      0.0074373588   8.0971224      737.17658     -11.19061       725.98597    
   3895000   303.24097      0.0074373588   0.57691049     752.34922     -12.923645      739.42557    
   3896000   291.99686      0.0074373588  -0.11147377     724.45225     -11.504605      712.94765    
   3897000   299.90956      0.0074373588   7.7477737      744.08388     -13.244789      730.83909    
   3898000   304.25314      0.0074373588   11.137814      754.86044     -13.626353      741.23408    
   3899000   304.6118       0.0074373588  -3.0688644      755.75027     -11.869407      743.88087    
   3900000   293.31432      0.0074373588   6.734696       727.72091     -12.729586      714.99133    
   3901000   298.89413      0.0074373588   6.8244224      741.56459     -13.901074      727.66351    
   3902000   311.44457      0.0074373588   7.9288501      772.70258     -13.857966      758.84461    
   3903000   307.62238      0.0074373588   2.4109595      763.21961     -12.670808      750.5488     
   3904000   281.74444      0.0074373588  -3.3491674      699.01573     -13.774849      685.24088    
   3905000   292.2101       0.0074373588   6.481328       724.98131     -12.22918       712.75213    
   3906000   316.83873      0.0074373588   13.743409      786.08563     -13.134362      772.95127    
   3907000   305.86178      0.0074373588   1.1082501      758.85152     -13.017876      745.83364    
   3908000   281.2102       0.0074373588   6.7221566      697.69026     -15.524643      682.16562    
   3909000   302.39489      0.0074373588   8.5229939      750.25007     -14.638518      735.61155    
   3910000   317.92163      0.0074373588  -5.8037636      788.77232     -19.127967      769.64435    
   3911000   288.27046      0.0074373588   1.6517513      715.20695     -18.490851      696.7161     
   3912000   277.51972      0.0074373588   5.8891178      688.53407     -19.621172      668.9129     
   3913000   292.06761      0.0074373588   4.7652938      724.6278      -15.244079      709.38372    
   3914000   299.75592      0.0074373588   7.1910741      743.7027      -13.283148      730.41955    
   3915000   312.86766      0.0074373588   1.9657242      776.2333      -13.854418      762.37888    
   3916000   310.05731      0.0074373588   3.2825928      769.26074     -12.0142        757.24654    
   3917000   308.01736      0.0074373588   16.874201      764.19956     -10.178186      754.02137    
   3918000   298.96516      0.0074373588  -1.0391203      741.74081     -11.877559      729.86325    
   3919000   289.07004      0.0074373588  -0.735077       717.19074     -10.45316       706.73758    
   3920000   303.79061      0.0074373588   14.803485      753.71288     -10.758409      742.95447    
   3921000   311.06857      0.0074373588   8.2681831      771.76971     -13.140289      758.62942    
   3922000   297.8798       0.0074373588   4.3249896      739.04801     -8.6812738      730.36673    
   3923000   302.46971      0.0074373588  -1.1964255      750.4357      -13.410365      737.02534    
   3924000   299.65675      0.0074373588   1.7372773      743.45666     -10.475263      732.9814     
   3925000   307.96514      0.0074373588   5.7337444      764.07001     -15.240396      748.82962    
   3926000   297.87874      0.0074373588   8.8600959      739.04536     -14.357508      724.68785    
   3927000   304.83758      0.0074373588   6.4947338      756.31045     -18.038691      738.27176    
   3928000   302.87568      0.0074373588  -1.6939008      751.44292     -12.998314      738.44461    
   3929000   286.97548      0.0074373588   5.3800339      711.99408     -11.554741      700.43934    
   3930000   301.16172      0.0074373588   10.138972      747.19052     -10.010814      737.17971    
   3931000   305.03587      0.0074373588   0.85275405     756.80239     -11.641098      745.1613     
   3932000   302.38466      0.0074373588   0.83194351     750.22467     -11.487913      738.73676    
   3933000   288.23719      0.0074373588  -0.33753154     715.12441     -9.5787705      705.54564    
   3934000   300.48367      0.0074373588   7.285357       745.50827     -10.349182      735.15908    
   3935000   304.84824      0.0074373588   7.7432727      756.33688     -9.3226456      747.01423    
   3936000   304.92791      0.0074373588   0.02003142     756.53454     -11.313649      745.22089    
   3937000   291.96094      0.0074373588   0.48736343     724.36315     -13.278558      711.08459    
   3938000   290.24555      0.0074373588   3.9956057      720.1072      -12.195445      707.91176    
   3939000   312.43522      0.0074373588   7.8530319      775.1604      -10.403748      764.75665    
   3940000   318.63065      0.0074373588   3.2341742      790.53142     -9.4894411      781.04198    
   3941000   301.72786      0.0074373588   2.1764916      748.59513     -13.630644      734.96449    
   3942000   286.70947      0.0074373588   2.3314847      711.33409     -11.251603      700.08248    
   3943000   294.42483      0.0074373588   4.913395       730.47612     -16.174294      714.30183    
   3944000   307.61325      0.0074373588   4.3225112      763.19695     -12.846212      750.35074    
   3945000   313.22882      0.0074373588   2.5690456      777.12933     -9.999455       767.12987    
   3946000   293.81911      0.0074373588   1.2698472      728.9733      -11.59109       717.38221    
   3947000   292.68898      0.0074373588   6.7021044      726.16944     -13.512037      712.6574     
   3948000   302.97559      0.0074373588   6.3795266      751.69079     -11.996201      739.69459    
   3949000   315.09604      0.0074373588   3.8454757      781.76197     -13.555348      768.20662    
   3950000   302.7034       0.0074373588   2.9962672      751.01548     -12.776866      738.23861    
   3951000   295.59511      0.0074373588   3.6134991      733.37962     -13.785718      719.5939     
   3952000   297.70852      0.0074373588   5.0834052      738.62303     -15.689481      722.93355    
   3953000   304.0449       0.0074373588   6.1830368      754.34378     -15.530944      738.81283    
   3954000   305.83009      0.0074373588   5.335346       758.77288     -16.539274      742.23361    
   3955000   299.3374       0.0074373588   2.2270359      742.66435     -17.278476      725.38588    
   3956000   289.73536      0.0074373588   3.3633583      718.84141     -13.283198      705.55821    
   3957000   308.59649      0.0074373588   6.12403        765.63639     -11.628178      754.00821    
   3958000   301.81054      0.0074373588   4.2734312      748.80027     -9.555423       739.24485    
   3959000   299.24951      0.0074373588   3.6208605      742.44628     -9.7966614      732.64962    
   3960000   291.02326      0.0074373588   2.6433864      722.03674     -9.8539238      712.18282    
   3961000   302.45362      0.0074373588   4.1647218      750.39578     -9.3866115      741.00917    
   3962000   307.07251      0.0074373588   3.7978269      761.85537     -11.918626      749.93674    
   3963000   304.822        0.0074373588   5.1817804      756.27178     -11.226746      745.04504    
   3964000   287.52742      0.0074373588   3.4942387      713.36345     -12.698497      700.66495    
   3965000   316.68368      0.0074373588   3.1289817      785.70095     -15.383069      770.31788    
   3966000   300.81031      0.0074373588   4.7054306      746.31868     -13.138553      733.18013    
   3967000   301.40085      0.0074373588   1.1554462      747.78382     -12.308055      735.47576    
   3968000   303.22794      0.0074373588   3.6899072      752.31688     -11.328264      740.98861    
   3969000   300.20077      0.0074373588   6.0351585      744.80638     -12.410673      732.3957     
   3970000   299.33         0.0074373588  -3.2775516      742.64599     -12.768549      729.87744    
   3971000   292.75498      0.0074373588   7.2550536      726.33318     -13.472973      712.86021    
   3972000   304.8805       0.0074373588   8.01718        756.41692     -11.301692      745.11523    
   3973000   294.99843      0.0074373588  -2.8675622      731.89924     -11.170302      720.72894    
   3974000   296.71526      0.0074373588   2.1499164      736.15875     -10.501733      725.65701    
   3975000   298.76254      0.0074373588   0.28125341     741.23811     -8.3381916      732.89992    
   3976000   310.61556      0.0074373588   6.4172002      770.64577     -8.7460393      761.89973    
   3977000   298.72914      0.0074373588   1.776694       741.15523     -11.57079       729.58444    
   3978000   286.26246      0.0074373588  -0.19218595     710.22506     -13.877936      696.34712    
   3979000   298.38336      0.0074373588   3.9521548      740.29735     -13.292517      727.00483    
   3980000   305.20219      0.0074373588   4.3081665      757.21505     -13.589692      743.62536    
   3981000   300.0011       0.0074373588   7.2739645      744.311       -15.871078      728.43992    
   3982000   291.91108      0.0074373588   3.6221533      724.23944     -11.292657      712.94679    
   3983000   312.4794       0.0074373588   1.9074821      775.27        -14.293668      760.97633    
   3984000   306.43871      0.0074373588   5.3097573      760.28288     -13.787466      746.49542    
   3985000   290.63134      0.0074373588   7.421323       721.06438     -12.260463      708.80391    
   3986000   298.29384      0.0074373588   1.3933719      740.07524     -9.8036122      730.27163    
   3987000   307.05377      0.0074373588   1.4176219      761.80887     -11.577468      750.23141    
   3988000   311.68546      0.0074373588   4.6530995      773.30022     -10.776729      762.52349    
   3989000   292.48903      0.0074373588   7.1107859      725.67336     -11.614551      714.0588     
   3990000   294.56309      0.0074373588   6.2096034      730.81914     -12.240933      718.57821    
   3991000   301.74016      0.0074373588  -1.5319108      748.62566     -11.143829      737.48183    
   3992000   319.03216      0.0074373588  -0.86643949     791.52758     -12.973264      778.55431    
   3993000   300.36434      0.0074373588   10.741637      745.21221     -12.5499        732.66231    
   3994000   297.1959       0.0074373588   7.8925276      737.35121     -12.80342       724.54779    
   3995000   304.04646      0.0074373588  -6.7643868      754.34765     -10.521886      743.82577    
   3996000   301.82512      0.0074373588   3.3681207      748.83643     -11.146975      737.68946    
   3997000   299.96595      0.0074373588   4.1430627      744.22378     -9.8668036      734.35698    
   3998000   299.19529      0.0074373588   7.1146443      742.31175     -9.2130728      733.09868    
   3999000   305.37612      0.0074373588   7.8090772      757.64657     -11.534649      746.11192    
   4000000   284.43052      0.0074373588   2.0660879      705.67996     -14.117492      691.56247    
Loop time of 15328.7 on 1 procs for 4000000 steps with 1500 atoms

Performance: 5.636 ns/day, 4.258 hours/ns, 260.948 timesteps/s, 391.422 katom-step/s
99.3% CPU use with 1 MPI tasks x 1 OpenMP threads

MPI task timing breakdown:
Section |  min time  |  avg time  |  max time  |%varavg| %total
---------------------------------------------------------------
Pair    | 888.15     | 888.15     | 888.15     |   0.0 |  5.79
Bond    | 185.11     | 185.11     | 185.11     |   0.0 |  1.21
Kspace  | 13350      | 13350      | 13350      |   0.0 | 87.09
Neigh   | 0.052582   | 0.052582   | 0.052582   |   0.0 |  0.00
Comm    | 35.737     | 35.737     | 35.737     |   0.0 |  0.23
Output  | 0.13523    | 0.13523    | 0.13523    |   0.0 |  0.00
Modify  | 847.5      | 847.5      | 847.5      |   0.0 |  5.53
Other   |            | 21.75      |            |       |  0.14

Nlocal:           1500 ave        1500 max        1500 min
Histogram: 1 0 0 0 0 0 0 0 0 0
Nghost:            956 ave         956 max         956 min
Histogram: 1 0 0 0 0 0 0 0 0 0
Neighs:              0 ave           0 max           0 min
Histogram: 1 0 0 0 0 0 0 0 0 0

Total # of neighbors = 0
Ave neighs/atom = 0
Ave special neighs/atom = 2
Neighbor list builds = 19598
Dangerous builds = 0
write_data	last_conf.data pair ij
System init for write_data ...
PPPM initialization ...
  using 12-bit tables for long-range coulomb (src/kspace.cpp:342)
  G vector (1/distance) = 0.15604469
  grid = 32 32 32
  stencil order = 5
  estimated absolute RMS force accuracy = 0.034826331
  estimated relative force accuracy = 0.00010487846
  using double precision FFTW3
  3d grid and FFT values/proc = 50653 32768
Generated 1 of 1 mixed pair_coeff terms from arithmetic mixing rule
Total wall time: 4:15:28
