LAMMPS data file via write_data, version 29 Aug 2024, timestep = 0, units = real

1500 atoms
2 atom types
1000 bonds
1 bond types
500 angles
1 angle types

0 133 xlo xhi
0 133 ylo yhi
0 133 zlo zhi

Masses

1 12.0107
2 15.9994

PairIJ Coeffs # lj/cut/coul/long/gpu

1 1 0.053649 2.8 12
1 2 0.0917684 2.925 12
2 2 0.156973 3.05 12

Bond Coeffs # harmonic

1 0 1.16

Angle Coeffs # harmonic

1 0 180

Atoms # full

1 1 1 0.7 9.79899729639245 37.74756046791913 13.248784316819526 0 0 0
2 1 2 -0.35 8.791336552150234 37.98524649355269 12.725596800022968 0 0 0
3 1 2 -0.35 10.806658040634666 37.50987444228557 13.771971833616083 0 0 0
4 2 1 0.7 30.31801278578025 31.840890608653844 90.84845964510387 0 0 0
5 2 2 -0.35 30.665332641909835 32.341457699466055 89.86134186837512 0 0 0
6 2 2 -0.35 29.970692929650667 31.340323517841632 91.83557742183262 0 0 0
7 3 1 0.7 50.06125526086486 21.517169355655632 12.06536050423298 0 0 0
8 3 2 -0.35 49.598646405911886 20.453406140819123 12.064427723556948 0 0 0
9 3 2 -0.35 50.52386411581784 22.58093257049214 12.066293284909014 0 0 0
10 4 1 0.7 90.51399464370402 14.70797673366404 82.964962691518 0 0 0
11 4 2 -0.35 89.42893532594502 14.907020671815202 83.32360985465976 0 0 0
12 4 2 -0.35 91.59905396146303 14.508932795512878 82.60631552837623 0 0 0
13 5 1 0.7 20.127956342942994 71.56225584287301 27.833951166753632 0 0 0
14 5 2 -0.35 19.955297567898572 71.84723429239325 28.945066026122007 0 0 0
15 5 2 -0.35 20.300615117987416 71.27727739335278 26.722836307385258 0 0 0
16 6 1 0.7 44.21725962833374 88.4825734051329 53.6112200685829 0 0 0
17 6 2 -0.35 43.12978544394433 88.65613305032315 53.24669716416123 0 0 0
18 6 2 -0.35 45.30473381272316 88.30901375994264 53.97574297300457 0 0 0
19 7 1 0.7 101.77569267282992 31.066752252665697 113.90511055239713 0 0 0
20 7 2 -0.35 100.75432007326475 31.32942836891302 113.42199641390528 0 0 0
21 7 2 -0.35 102.79706527239509 30.804076136418374 114.38822469088899 0 0 0
22 8 1 0.7 1.1930541387726805 101.66091035244098 96.92029347546412 0 0 0
23 8 2 -0.35 0.7181607390429771 102.67834263426437 97.21168292413519 0 0 0
24 8 2 -0.35 1.6679475385023839 100.64347807061759 96.62890402679305 0 0 0
25 9 1 0.7 88.37244212551622 64.63480355107914 106.14328298724409 0 0 0
26 9 2 -0.35 88.03168512246744 65.34682212623287 105.2932746263974 0 0 0
27 9 2 -0.35 88.713199128565 63.922784975925424 106.99329134809078 0 0 0
28 10 1 0.7 21.157166611476413 79.49923908407766 25.711286092973914 0 0 0
29 10 2 -0.35 21.163745921450758 78.5396971098604 26.36308047189683 0 0 0
30 10 2 -0.35 21.150587301502068 80.45878105829492 25.059491714051 0 0 0
31 11 1 0.7 12.58536461255763 52.22304325607747 45.6880048940368 0 0 0
32 11 2 -0.35 12.190953641005084 52.1938651772298 46.778504149072646 0 0 0
33 11 2 -0.35 12.979775584110175 52.25222133492513 44.59750563900096 0 0 0
34 12 1 0.7 69.29825407653034 14.756264245489737 96.53317394598069 0 0 0
35 12 2 -0.35 68.37891529790357 15.439672536771324 96.71584665198964 0 0 0
36 12 2 -0.35 70.21759285515711 14.07285595420815 96.35050123997175 0 0 0
37 13 1 0.7 99.05451009751042 48.151208857610456 105.36726985888895 0 0 0
38 13 2 -0.35 99.13948027433256 47.000366299601986 105.24919583241685 0 0 0
39 13 2 -0.35 98.96953992068828 49.30205141561893 105.48534388536105 0 0 0
40 14 1 0.7 12.704518346444015 59.83984868453808 115.33684103160017 0 0 0
41 14 2 -0.35 12.003498940934957 59.49901673879358 116.19591342544119 0 0 0
42 14 2 -0.35 13.405537751953073 60.18068063028259 114.47776863775916 0 0 0
43 15 1 0.7 124.28721810425037 130.2746781358843 80.51542980760122 0 0 0
44 15 2 -0.35 123.50058102703657 130.2807931040445 79.66292484226851 0 0 0
45 15 2 -0.35 125.07385518146417 130.2685631677241 81.36793477293394 0 0 0
46 16 1 0.7 80.82877635389043 27.244179836588064 106.93051353559389 0 0 0
47 16 2 -0.35 79.67924905026953 27.094004513192516 106.89008643486804 0 0 0
48 16 2 -0.35 81.97830365751133 27.39435515998361 106.97094063631974 0 0 0
49 17 1 0.7 85.14099272626498 17.66475033558195 35.4588901258348 0 0 0
50 17 2 -0.35 84.16926625628768 18.23643910542589 35.73187294210678 0 0 0
51 17 2 -0.35 86.11271919624228 17.093061565738008 35.185907309562815 0 0 0
52 18 1 0.7 117.56634490544272 89.55882577577552 54.18481345902421 0 0 0
53 18 2 -0.35 116.75070636855425 90.18061122922046 53.6428571627911 0 0 0
54 18 2 -0.35 118.38198344233119 88.93704032233057 54.72676975525732 0 0 0
55 19 1 0.7 33.15980581993228 46.856415601846024 22.777020226128872 0 0 0
56 19 2 -0.35 32.980065181424294 47.168034203600634 21.67421147121747 0 0 0
57 19 2 -0.35 33.33954645844027 46.544797000091414 23.879828981040276 0 0 0
58 20 1 0.7 39.37894054799291 33.85379011689396 6.6504946368050275 0 0 0
59 20 2 -0.35 40.29939967442379 33.78909824046442 7.353466867902479 0 0 0
60 20 2 -0.35 38.458481421562034 33.9184819933235 5.947522405707576 0 0 0
61 21 1 0.7 54.863360782090275 132.5046645912829 53.897785691962476 0 0 0
62 21 2 -0.35 55.67299745321933 131.77619410624914 54.29705904844614 0 0 0
63 21 2 -0.35 54.05372411096122 0.23313507631667107 53.498512335478814 0 1 0
64 22 1 0.7 130.08412481336117 69.88573816087364 46.60126980328991 0 0 0
65 22 2 -0.35 129.15881980083137 69.20136475894019 46.45620540202886 0 0 0
66 22 2 -0.35 131.00942982589098 70.5701115628071 46.74633420455096 0 0 0
67 23 1 0.7 123.54158389360717 100.40049985582031 60.201076772157606 0 0 0
68 23 2 -0.35 124.30422263885363 101.00021139620549 59.565208694190375 0 0 0
69 23 2 -0.35 122.7789451483607 99.80078831543514 60.83694485012484 0 0 0
70 24 1 0.7 68.49730965285436 119.28333552334614 86.0201408783999 0 0 0
71 24 2 -0.35 67.67787193769442 120.02321233766945 86.37609611519275 0 0 0
72 24 2 -0.35 69.31674736801429 118.54345870902283 85.66418564160705 0 0 0
73 25 1 0.7 30.50774326711322 28.641090371944514 43.80588127151405 0 0 0
74 25 2 -0.35 29.46392260018503 28.15772411331239 43.6562300927363 0 0 0
75 25 2 -0.35 31.55156393404141 29.12445663057664 43.955532450291805 0 0 0
76 26 1 0.7 90.44653033672205 77.83536928744772 124.05161413366517 0 0 0
77 26 2 -0.35 89.36546419330466 78.1322776124697 123.75371911845126 0 0 0
78 26 2 -0.35 91.52759648013944 77.53846096242575 124.34950914887908 0 0 0
79 27 1 0.7 27.4787445103185 59.25898492301767 61.75960115797799 0 0 0
80 27 2 -0.35 26.632059889254414 59.18474835054465 60.97016206358183 0 0 0
81 27 2 -0.35 28.325429131382585 59.33322149549069 62.54904025237415 0 0 0
82 28 1 0.7 61.616662136100544 53.24052144179145 122.4438721888903 0 0 0
83 28 2 -0.35 60.78636540679676 53.79507375420778 123.0343627257333 0 0 0
84 28 2 -0.35 62.446958865404326 52.685969129375124 121.85338165204729 0 0 0
85 29 1 0.7 5.159878679159973 6.080960641652792 58.7055042584918 0 0 0
86 29 2 -0.35 4.000506004318428 6.10575446582948 58.73449161976282 0 0 0
87 29 2 -0.35 6.319251354001517 6.056166817476105 58.67651689722078 0 0 0
88 30 1 0.7 69.41007247167177 32.088031387463225 121.54352909444995 0 0 0
89 30 2 -0.35 68.49024698233545 32.13706569949169 120.83846405815109 0 0 0
90 30 2 -0.35 70.32989796100809 32.03899707543476 122.24859413074881 0 0 0
91 31 1 0.7 35.093490420418554 94.29349597464012 95.78684577661885 0 0 0
92 31 2 -0.35 35.40567056205251 93.30795396226218 95.26067992728288 0 0 0
93 31 2 -0.35 34.7813102787846 95.27903798701807 96.31301162595481 0 0 0
94 32 1 0.7 57.51696763304852 43.67500864652685 18.87032217666056 0 0 0
95 32 2 -0.35 56.72559635858442 42.82755389835055 18.836381703085216 0 0 0
96 32 2 -0.35 58.30833890751263 44.522463394703145 18.904262650235907 0 0 0
97 33 1 0.7 81.50482313405016 84.5624139809806 2.4917783408853125 0 0 0
98 33 2 -0.35 80.36369162195848 84.39904821935487 2.621124775083581 0 0 0
99 33 2 -0.35 82.64595464614183 84.72577974260632 2.362431906687044 0 0 0
100 34 1 0.7 117.31857525944643 48.294385516221816 117.73737114003737 0 0 0
101 34 2 -0.35 116.31995763616844 48.24197789736799 117.14947975213933 0 0 0
102 34 2 -0.35 118.31719288272443 48.34679313507564 118.32526252793541 0 0 0
103 35 1 0.7 37.99675060808507 78.38747008581994 93.20973237567102 0 0 0
104 35 2 -0.35 36.85053904735921 78.56567217648424 93.20316937778405 0 0 0
105 35 2 -0.35 39.14296216881093 78.20926799515564 93.216295373558 0 0 0
106 36 1 0.7 101.97203790302017 6.0410360600990405 52.69306208458406 0 0 0
107 36 2 -0.35 100.99140510576368 5.486187866197799 52.9689294416045 0 0 0
108 36 2 -0.35 102.95267070027666 6.595884254000282 52.41719472756361 0 0 0
109 37 1 0.7 98.29445560429919 41.91534145638129 103.14385740046569 0 0 0
110 37 2 -0.35 97.13524894099524 41.912762452106904 103.10104080918765 0 0 0
111 37 2 -0.35 99.45366226760314 41.91792046065568 103.18667399174373 0 0 0
112 38 1 0.7 16.811329626856057 56.017038569793584 104.36724252084608 0 0 0
113 38 2 -0.35 16.85431773583376 56.626320754499574 103.3810745625923 0 0 0
114 38 2 -0.35 16.768341517878355 55.407756385087595 105.35341047909985 0 0 0
115 39 1 0.7 96.24504785996164 44.519382375534335 112.25958560558948 0 0 0
116 39 2 -0.35 95.45646099555823 43.804811383640455 111.79793741179446 0 0 0
117 39 2 -0.35 97.03363472436506 45.233953367428214 112.72123379938449 0 0 0
118 40 1 0.7 8.855273142389615 3.5757041422537084 113.85951885807305 0 0 0
119 40 2 -0.35 8.60359488289825 3.6162850331655583 114.99115981040386 0 0 0
120 40 2 -0.35 9.10695140188098 3.5351232513418585 112.72787790574223 0 0 0
121 41 1 0.7 32.93344763383896 99.45438193131908 118.7971196797663 0 0 0
122 41 2 -0.35 32.412415203098895 100.20710320532214 118.08470414808532 0 0 0
123 41 2 -0.35 33.45448006457902 98.70166065731601 119.50953521144727 0 0 0
124 42 1 0.7 27.19045783215689 2.0247850609127362 115.56251876035822 0 0 0
125 42 2 -0.35 26.047837502015177 1.8583045778373235 115.67343778443353 0 0 0
126 42 2 -0.35 28.333078162298605 2.1912655439881488 115.4515997362829 0 0 0
127 43 1 0.7 60.25280534068718 6.899360929568932 114.55914326503833 0 0 0
128 43 2 -0.35 61.35786491269469 6.957127236736925 114.21113982242495 0 0 0
129 43 2 -0.35 59.14774576867968 6.8415946224009385 114.9071467076517 0 0 0
130 44 1 0.7 87.52085549920837 116.01837519510573 7.831904142085418 0 0 0
131 44 2 -0.35 86.90007664355396 116.90069700182134 7.40559223541788 0 0 0
132 44 2 -0.35 88.14163435486277 115.13605338839012 8.258216048752955 0 0 0
133 45 1 0.7 93.8129160296232 131.679709877204 20.883906167877797 0 0 0
134 45 2 -0.35 92.69095144022236 131.44771655981162 21.065495156574556 0 0 0
135 45 2 -0.35 94.93488061902403 131.91170319459638 20.702317179181037 0 0 0
136 46 1 0.7 8.810963522089162 56.86391575255614 106.83205321097375 0 0 0
137 46 2 -0.35 8.503214649640917 56.52118660822634 107.89667866865068 0 0 0
138 46 2 -0.35 9.118712394537408 57.20664489688594 105.76742775329683 0 0 0
139 47 1 0.7 26.318316836058308 106.95106363201099 31.526463208499578 0 0 0
140 47 2 -0.35 25.594706898303734 107.09932339207482 32.42089470477452 0 0 0
141 47 2 -0.35 27.041926773812882 106.80280387194715 30.632031712224634 0 0 0
142 48 1 0.7 126.26714525244532 23.910257848403536 66.70365811824038 0 0 0
143 48 2 -0.35 125.25709690514753 23.345280313854946 66.78241547711194 0 0 0
144 48 2 -0.35 127.2771935997431 24.475235382952125 66.62490075936883 0 0 0
145 49 1 0.7 31.381993266000407 92.16082166887858 28.929788842298922 0 0 0
146 49 2 -0.35 31.5621650372163 91.27008725233475 28.208865592541198 0 0 0
147 49 2 -0.35 31.201821494784514 93.05155608542242 29.650712092056647 0 0 0
148 50 1 0.7 107.96107251800646 115.74581013468365 81.83093362805943 0 0 0
149 50 2 -0.35 107.29128040261543 114.95319011943249 82.34932733325196 0 0 0
150 50 2 -0.35 108.6308646333975 116.53843014993481 81.31253992286689 0 0 0
151 51 1 0.7 112.50148679479094 84.4885600514191 91.22878420084193 0 0 0
152 51 2 -0.35 111.67757702812985 85.04349867747163 91.82779656942493 0 0 0
153 51 2 -0.35 113.32539656145202 83.93362142536657 90.62977183225892 0 0 0
154 52 1 0.7 58.1760635502525 82.10008909371685 114.1973980992089 0 0 0
155 52 2 -0.35 58.12491709094835 80.94124894361296 114.2059740077827 0 0 0
156 52 2 -0.35 58.22721000955665 83.25892924382073 114.1888221906351 0 0 0
157 53 1 0.7 125.66985340401058 93.22616120578076 112.09138555735879 0 0 0
158 53 2 -0.35 124.63018204259076 93.14831651330458 111.58283500520419 0 0 0
159 53 2 -0.35 126.7095247654304 93.30400589825693 112.5999361095134 0 0 0
160 54 1 0.7 107.91706252932411 41.06993035044052 125.31939985385137 0 0 0
161 54 2 -0.35 107.19685225412933 41.93939874601508 125.58571145442643 0 0 0
162 54 2 -0.35 108.6372728045189 40.200461954865965 125.0530882532763 0 0 0
163 55 1 0.7 55.15334367992047 85.24722842324861 74.16810953950886 0 0 0
164 55 2 -0.35 54.330099918376824 85.08030664276339 74.96811380717193 0 0 0
165 55 2 -0.35 55.97658744146411 85.41415020373384 73.36810527184579 0 0 0
166 56 1 0.7 67.41703052558799 51.03204355716335 111.55606524439345 0 0 0
167 56 2 -0.35 66.27797454002285 50.97716518104219 111.3436038935963 0 0 0
168 56 2 -0.35 68.55608651115313 51.08692193328451 111.76852659519061 0 0 0
169 57 1 0.7 21.788562520774345 51.37028665438773 77.40780029464877 0 0 0
170 57 2 -0.35 20.68022044578956 51.4380421449132 77.0722603740401 0 0 0
171 57 2 -0.35 22.896904595759132 51.30253116386227 77.74334021525743 0 0 0
172 58 1 0.7 119.89955216175856 68.77318267606812 100.88123667700275 0 0 0
173 58 2 -0.35 120.27259995374898 67.76452802021072 101.31603678062311 0 0 0
174 58 2 -0.35 119.52650436976815 69.78183733192552 100.44643657338239 0 0 0
175 59 1 0.7 26.944830385011077 129.76428088115728 14.268769610332683 0 0 0
176 59 2 -0.35 26.68879332779021 128.7075164410444 13.864673157189928 0 0 0
177 59 2 -0.35 27.200867442231942 130.82104532127016 14.672866063475437 0 0 0
178 60 1 0.7 16.210840861411224 71.60235773846618 36.826510400896204 0 0 0
179 60 2 -0.35 15.191033133651237 71.33709004334116 36.34151014489207 0 0 0
180 60 2 -0.35 17.23064858917121 71.8676254335912 37.31151065690034 0 0 0
181 61 1 0.7 94.16030786240488 118.29424343877203 87.34947544166329 0 0 0
182 61 2 -0.35 93.0899324561052 118.58893229986231 87.68571191312068 0 0 0
183 61 2 -0.35 95.23068326870455 117.99955457768175 87.01323897020589 0 0 0
184 62 1 0.7 28.63374803477607 53.40322048142703 63.92663134398248 0 0 0
185 62 2 -0.35 29.197800830278826 54.214331598856035 64.53453199299398 0 0 0
186 62 2 -0.35 28.06969523927331 52.59210936399802 63.31873069497099 0 0 0
187 63 1 0.7 40.892998313481456 77.62265468278092 6.957253498936656 0 0 0
188 63 2 -0.35 39.829129516216334 78.04784409302371 6.775602328769609 0 0 0
189 63 2 -0.35 41.95686711074658 77.19746527253812 7.138904669103703 0 0 0
190 64 1 0.7 23.559556628372313 24.468253053477152 1.9290697904904697 0 0 0
191 64 2 -0.35 23.599803958044376 25.37539246649565 1.2072122991511316 0 0 0
192 64 2 -0.35 23.51930929870025 23.561113640458654 2.6509272818298077 0 0 0
193 65 1 0.7 102.8759687733259 36.40717328824437 95.3614555231116 0 0 0
194 65 2 -0.35 103.14597702560783 35.79336696556863 96.30799519050169 0 0 0
195 65 2 -0.35 102.60596052104395 37.020979610920115 94.41491585572152 0 0 0
196 66 1 0.7 89.98297693672728 0.8933755754927991 118.9632973074742 0 0 0
197 66 2 -0.35 89.24016953415605 1.1202031350242252 118.10167881827937 0 0 0
198 66 2 -0.35 90.72578433929851 0.666548015961373 119.82491579666905 0 0 0
199 67 1 0.7 27.13784671907213 48.78980744527178 65.29373268284543 0 0 0
200 67 2 -0.35 26.74162121776154 47.798462605012354 64.84003591208086 0 0 0
201 67 2 -0.35 27.53407222038272 49.7811522855312 65.74742945361 0 0 0
202 68 1 0.7 8.765200583154893 85.72620108431494 11.261624081182118 0 0 0
203 68 2 -0.35 8.110502624503077 86.39190411416645 10.573285458857562 0 0 0
204 68 2 -0.35 9.41989854180671 85.06049805446342 11.949962703506674 0 0 0
205 69 1 0.7 15.115932427866353 23.47631514979355 88.42872258016315 0 0 0
206 69 2 -0.35 14.013563658768247 23.532525300850306 88.78540663620618 0 0 0
207 69 2 -0.35 16.21830119696446 23.420104998736793 88.07203852412013 0 0 0
208 70 1 0.7 79.54040480197426 52.583506781413924 118.99847522377897 0 0 0
209 70 2 -0.35 78.42663443312914 52.661623087113625 118.68381126291528 0 0 0
210 70 2 -0.35 80.65417517081939 52.50539047571422 119.31313918464265 0 0 0
211 71 1 0.7 86.37308605312047 110.45729479587511 41.75363427295984 0 0 0
212 71 2 -0.35 87.41640722370293 110.01821880339547 42.007195326440986 0 0 0
213 71 2 -0.35 85.32976488253802 110.89637078835476 41.5000732194787 0 0 0
214 72 1 0.7 45.33122563610376 57.9092659959147 120.0335933384642 0 0 0
215 72 2 -0.35 44.17398116719603 57.927548822038105 120.11138136743662 0 0 0
216 72 2 -0.35 46.48847010501149 57.8909831697913 119.95580530949178 0 0 0
217 73 1 0.7 60.60323956776561 44.64741543664012 3.1112436103221235 0 0 0
218 73 2 -0.35 60.551352427233134 45.74139020918927 3.4935091223335966 0 0 0
219 73 2 -0.35 60.65512670829809 43.553440664090964 2.7289780983106504 0 0 0
220 74 1 0.7 21.671358683924822 76.52540072450665 52.409976783399465 0 0 0
221 74 2 -0.35 20.522007938729487 76.62101593756921 52.28567635882283 0 0 0
222 74 2 -0.35 22.820709429120157 76.4297855114441 52.534277207976096 0 0 0
223 75 1 0.7 128.47979859471312 104.97498134336202 69.51143788523574 0 0 0
224 75 2 -0.35 127.94250872584817 104.28265743655714 68.75143314519688 0 0 0
225 75 2 -0.35 129.01708846357806 105.66730525016689 70.27144262527459 0 0 0
226 76 1 0.7 6.736537156969559 37.97999718737789 62.812728260090914 0 0 0
227 76 2 -0.35 7.693951388895294 38.30866655697082 63.37923901373769 0 0 0
228 76 2 -0.35 5.779122925043825 37.65132781778496 62.24621750644414 0 0 0
229 77 1 0.7 72.5238673479873 96.6385176226676 7.565684174450898 0 0 0
230 77 2 -0.35 71.7043368293447 97.24402484442126 7.011309992676942 0 0 0
231 77 2 -0.35 73.34339786662991 96.03301040091395 8.120058356224854 0 0 0
232 78 1 0.7 8.453919996253179 41.03337702715461 42.96769538753093 0 0 0
233 78 2 -0.35 8.589872584799352 40.5261186116256 41.93338122174638 0 0 0
234 78 2 -0.35 8.317967407707005 41.540635442683616 44.00200955331548 0 0 0
235 79 1 0.7 101.05637823234143 44.548950962512265 77.2188269436447 0 0 0
236 79 2 -0.35 100.14344114325324 43.92513388809217 76.86811605269729 0 0 0
237 79 2 -0.35 101.96931532142962 45.17276803693236 77.56953783459211 0 0 0
238 80 1 0.7 2.8244418365994663 122.39394772723035 97.07945156054545 0 0 0
239 80 2 -0.35 3.759551185530489 121.80083329628015 97.42497403064024 0 0 0
240 80 2 -0.35 1.8893324876684439 122.98706215818056 96.73392909045066 0 0 0
241 81 1 0.7 103.34237808750122 28.348516632965076 47.519050244018 0 0 0
242 81 2 -0.35 102.59837436018036 29.184303952686765 47.824857389005004 0 0 0
243 81 2 -0.35 104.08638181482208 27.512729313243387 47.21324309903099 0 0 0
244 82 1 0.7 120.67745121041195 108.92249339349684 48.34646450138952 0 0 0
245 82 2 -0.35 120.9528500582137 107.88279569316092 48.78095750081031 0 0 0
246 82 2 -0.35 120.40205236261019 109.96219109383276 47.91197150196873 0 0 0
247 83 1 0.7 62.02887485363934 65.29966511637888 108.47161097986233 0 0 0
248 83 2 -0.35 61.14559719192209 65.34828903415455 107.72124021355313 0 0 0
249 83 2 -0.35 62.91215251535658 65.2510411986032 109.22198174617154 0 0 0
250 84 1 0.7 51.36573854618042 0.9677456542699345 38.901211314788654 0 0 0
251 84 2 -0.35 52.5168449564126 0.8244103742225297 38.89820634954415 0 0 0
252 84 2 -0.35 50.214632135948236 1.1110809343173393 38.90421628003316 0 0 0
253 85 1 0.7 117.65856765287862 43.54654193089648 120.73023257717966 0 0 0
254 85 2 -0.35 118.56454526779805 42.866442125661024 120.48069537317275 0 0 0
255 85 2 -0.35 116.75259003795918 44.22664173613194 120.97976978118658 0 0 0
256 86 1 0.7 65.0189246586612 45.0667381189143 1.6675645926350562 0 0 0
257 86 2 -0.35 64.38357400300985 45.38187837854464 2.5855058549844077 0 0 0
258 86 2 -0.35 65.65427531431256 44.75159785928396 0.7496233302857047 0 0 0
259 87 1 0.7 96.75810841739089 22.52817108879246 112.97148933493135 0 0 0
260 87 2 -0.35 96.44467298651773 22.01913226006438 113.96559078927115 0 0 0
261 87 2 -0.35 97.07154384826404 23.037209917520542 111.97738788059155 0 0 0
262 88 1 0.7 3.821252191356035 117.7855801208809 50.2450916451612 0 0 0
263 88 2 -0.35 3.8259029178545734 117.52672309034963 49.11435232573892 0 0 0
264 88 2 -0.35 3.8166014648574964 118.04443715141215 51.375830964583486 0 0 0
265 89 1 0.7 52.25528022425961 55.49472913122491 103.9125084969739 0 0 0
266 89 2 -0.35 51.4791855641542 55.98739395135128 103.20500693968535 0 0 0
267 89 2 -0.35 53.031374884365015 55.002064311098536 104.62001005426245 0 0 0
268 90 1 0.7 34.53030864034328 71.89731824952052 73.22781969151823 0 0 0
269 90 2 -0.35 35.2844465145839 71.12156354842708 73.6462461610051 0 0 0
270 90 2 -0.35 33.77617076610266 72.67307295061397 72.80939322203137 0 0 0
271 91 1 0.7 90.96555534702054 23.088717374060636 91.0729058371265 0 0 0
272 91 2 -0.35 89.95953735340429 22.890224991261157 90.53056962176659 0 0 0
273 91 2 -0.35 91.9715733406368 23.287209756860115 91.61524205248641 0 0 0
274 92 1 0.7 98.32840458505247 80.49586097686358 17.93543814631898 0 0 0
275 92 2 -0.35 97.44242489385041 80.2033635669214 18.624702429417 0 0 0
276 92 2 -0.35 99.21438427625452 80.78835838680577 17.24617386322096 0 0 0
277 93 1 0.7 62.90892518307498 93.30555194118318 116.41147546582458 0 0 0
278 93 2 -0.35 61.74992916051612 93.25836362529407 116.42154931991753 0 0 0
279 93 2 -0.35 64.06792120563384 93.3527402570723 116.40140161173163 0 0 0
280 94 1 0.7 97.66815411377146 22.666190157023347 38.65796909139397 0 0 0
281 94 2 -0.35 97.75760917204362 22.003892909289025 39.60610418102681 0 0 0
282 94 2 -0.35 97.57869905549931 23.32848740475767 37.70983400176114 0 0 0
283 95 1 0.7 19.486519058461543 63.92581556314873 27.182169840755954 0 0 0
284 95 2 -0.35 18.335627288645217 63.787121778320476 27.224739409922865 0 0 0
285 95 2 -0.35 20.63741082827787 64.064509347977 27.139600271589043 0 0 0
286 96 1 0.7 128.72851358527714 29.12782775290675 111.40104310372894 0 0 0
287 96 2 -0.35 128.11033280504543 29.462953671904945 112.32361729660869 0 0 0
288 96 2 -0.35 129.34669436550885 28.792701833908556 110.47846891084919 0 0 0
289 97 1 0.7 76.33144437211168 117.58556208088321 13.541893404229494 0 0 0
290 97 2 -0.35 76.32344672362116 118.04702976727559 12.477664287904313 0 0 0
291 97 2 -0.35 76.33944202060219 117.12409439449083 14.606122520554676 0 0 0
292 98 1 0.7 35.602444885113485 3.291184102320664 119.93120770339445 0 0 0
293 98 2 -0.35 35.3109944770545 2.7074271620432606 120.89031379466914 0 0 0
294 98 2 -0.35 35.89389529317247 3.874941042598067 118.97210161211976 0 0 0
295 99 1 0.7 68.80787095046037 18.887064387503575 96.89116077259702 0 0 0
296 99 2 -0.35 67.71056933288216 18.611412586791136 96.63514271693644 0 0 0
297 99 2 -0.35 69.90517256803858 19.162716188216013 97.1471788282576 0 0 0
298 100 1 0.7 130.73910503822336 39.13837742020301 113.70930135189988 0 0 0
299 100 2 -0.35 130.47151451854216 40.2552509411018 113.5462404672835 0 0 0
300 100 2 -0.35 131.00669555790455 38.021503899304214 113.87236223651627 0 0 0
301 101 1 0.7 35.227821381403054 90.99395724106299 101.43935054561094 0 0 0
302 101 2 -0.35 34.356685278310636 90.89858926821915 100.67933288815513 0 0 0
303 101 2 -0.35 36.09895748449547 91.08932521390682 102.19936820306674 0 0 0
304 102 1 0.7 97.16462008290208 71.76973333524994 56.90816554562569 0 0 0
305 102 2 -0.35 98.25994051372895 72.15158236122622 56.90013590215844 0 0 0
306 102 2 -0.35 96.0692996520752 71.38788430927366 56.916195189092946 0 0 0
307 103 1 0.7 52.538325330958855 24.633837425445133 124.90560945631266 0 0 0
308 103 2 -0.35 51.51222215159561 24.094158905551755 124.86740787956079 0 0 0
309 103 2 -0.35 53.5644285103221 25.17351594533851 124.94381103306453 0 0 0
310 104 1 0.7 16.578132246890167 126.66867348303492 122.39522936772333 0 0 0
311 104 2 -0.35 15.418537388836572 126.69051359847109 122.3737171727307 0 0 0
312 104 2 -0.35 17.73772710494376 126.64683336759876 122.41674156271597 0 0 0
313 105 1 0.7 118.61998332600109 109.05976010023606 94.38800466730632 0 0 0
314 105 2 -0.35 117.74004012656985 109.7058188517388 93.99569349568176 0 0 0
315 105 2 -0.35 119.49992652543233 108.41370134873333 94.78031583893087 0 0 0
316 106 1 0.7 88.19444341733794 132.01051519858208 127.72894256921902 0 0 0
317 106 2 -0.35 87.0644143438721 131.93194138039536 127.47902168530274 0 0 0
318 106 2 -0.35 89.32447249080377 132.0890890167688 127.97886345313529 0 0 0
319 107 1 0.7 120.33776086398296 118.74684096162527 113.15604203574176 0 0 0
320 107 2 -0.35 121.03675337716008 117.82936292132537 113.27950665451898 0 0 0
321 107 2 -0.35 119.63876835080585 119.66431900192516 113.03257741696454 0 0 0
322 108 1 0.7 46.59849471161071 76.90061804135358 107.68742102975371 0 0 0
323 108 2 -0.35 47.74954751614154 76.94494462400495 107.82421501811635 0 0 0
324 108 2 -0.35 45.447441907079885 76.85629145870222 107.55062704139107 0 0 0
325 109 1 0.7 38.485247070661394 42.54751660607174 88.11159824771416 0 0 0
326 109 2 -0.35 37.33733941004459 42.64871407216969 87.978680696004 0 0 0
327 109 2 -0.35 39.633154731278196 42.44631913997379 88.2445157994243 0 0 0
328 110 1 0.7 69.63174933177966 33.811019220767086 85.80004343241454 0 0 0
329 110 2 -0.35 70.40299210935233 34.57623562086353 86.2065264444402 0 0 0
330 110 2 -0.35 68.86050655420699 33.045802820670644 85.39356042038888 0 0 0
331 111 1 0.7 55.32996859137433 127.78211522837267 83.01064325962712 0 0 0
332 111 2 -0.35 54.49111682458407 128.07487329030158 83.75644513045373 0 0 0
333 111 2 -0.35 56.168820358164595 127.48935716644377 82.2648413888005 0 0 0
334 112 1 0.7 122.88126455288439 41.41334032798807 45.010892495518036 0 0 0
335 112 2 -0.35 122.0060342933675 40.69851988362374 45.2728156238301 0 0 0
336 112 2 -0.35 123.75649481240127 42.128160772352395 44.74896936720597 0 0 0
337 113 1 0.7 127.07017217160676 87.3836881948559 71.64749094315222 0 0 0
338 113 2 -0.35 126.07802100066127 87.9604501093111 71.81655231669882 0 0 0
339 113 2 -0.35 128.06232334255225 86.80692628040072 71.47842956960562 0 0 0
340 114 1 0.7 130.3802815593687 126.39216831018784 130.1727893269494 0 0 0
341 114 2 -0.35 129.29762399004818 126.1297990341877 129.84934698184887 0 0 0
342 114 2 -0.35 131.46293912868924 126.65453758618798 130.49623167204996 0 0 0
343 115 1 0.7 97.07021803877792 81.15457774054008 49.98808525688392 0 0 0
344 115 2 -0.35 97.98384291979706 81.28892418646609 49.2860591824039 0 0 0
345 115 2 -0.35 96.15659315775879 81.02023129461406 50.69011133136394 0 0 0
346 116 1 0.7 121.74891244794657 28.97151263801917 11.212907188205472 0 0 0
347 116 2 -0.35 121.97799171045503 27.89648029225065 10.842194163022898 0 0 0
348 116 2 -0.35 121.5198331854381 30.04654498378769 11.583620213388047 0 0 0
349 117 1 0.7 127.33111216934915 84.00223025120899 30.483832069432285 0 0 0
350 117 2 -0.35 127.52163613149202 83.8905480861129 29.34504863354606 0 0 0
351 117 2 -0.35 127.14058820720629 84.11391241630507 31.62261550531851 0 0 0
352 118 1 0.7 25.76559094840921 127.2870699135992 8.784037861872482 0 0 0
353 118 2 -0.35 24.6109991115079 127.35986231285662 8.869002306031302 0 0 0
354 118 2 -0.35 26.920182785310516 127.21427751434177 8.699073417713663 0 0 0
355 119 1 0.7 3.3243444908058013 12.257856973101319 0.8021469138572677 0 0 0
356 119 2 -0.35 4.321440214592921 12.684473270199229 1.2137275896134399 0 0 0
357 119 2 -0.35 2.327248767018682 11.831240676003409 0.39056623810109536 0 0 0
358 120 1 0.7 48.683181199097625 2.2264132337767695 46.327220086160686 0 0 0
359 120 2 -0.35 48.03112781339335 1.341991323505309 46.69900532904072 0 0 0
360 120 2 -0.35 49.3352345848019 3.11083514404823 45.95543484328065 0 0 0
361 121 1 0.7 39.587988102616734 89.31604067949394 96.69570025461525 0 0 0
362 121 2 -0.35 38.54264867904488 88.83525740308444 96.84305333619626 0 0 0
363 121 2 -0.35 40.63332752618859 89.79682395590343 96.54834717303423 0 0 0
364 122 1 0.7 37.63417931861905 102.65180803027555 125.93756484097688 0 0 0
365 122 2 -0.35 36.6810360145915 102.0615658192708 125.63968571392083 0 0 0
366 122 2 -0.35 38.587322622646596 103.2420502412803 126.23544396803292 0 0 0
367 123 1 0.7 70.65228229838064 28.908588883424454 17.653363714764527 0 0 0
368 123 2 -0.35 70.64329042270484 29.44297043099399 16.623822308220323 0 0 0
369 123 2 -0.35 70.66127417405644 28.374207335854916 18.682905121308732 0 0 0
370 124 1 0.7 110.08395404745077 18.01567550516486 81.45821530579506 0 0 0
371 124 2 -0.35 108.93187651947481 18.112815411043265 81.55245546824577 0 0 0
372 124 2 -0.35 111.23603157542674 17.918535599286457 81.36397514334436 0 0 0
373 125 1 0.7 99.2246444976072 114.6000712842681 110.39807469369754 0 0 0
374 125 2 -0.35 98.34567500076898 114.97976378119822 109.74321117249413 0 0 0
375 125 2 -0.35 100.10361399444542 114.22037878733798 111.05293821490095 0 0 0
376 126 1 0.7 110.44137697454607 40.222811195637476 118.78776507907908 0 0 0
377 126 2 -0.35 109.79724433760504 39.327255156713775 119.14647460944406 0 0 0
378 126 2 -0.35 111.08550961148711 41.11836723456118 118.4290555487141 0 0 0
379 127 1 0.7 2.967684082206192 2.866369639461101 29.074530422722237 0 0 0
380 127 2 -0.35 2.6172219518750475 3.816153420817339 29.640822806457354 0 0 0
381 127 2 -0.35 3.318146212537336 1.9165858581048631 28.50823803898712 0 0 0
382 128 1 0.7 13.632814692628019 100.71653899909768 51.87095783458602 0 0 0
383 128 2 -0.35 12.724375899011598 100.19252361013339 51.37522924918737 0 0 0
384 128 2 -0.35 14.54125348624444 101.24055438806197 52.366686419984674 0 0 0
385 129 1 0.7 113.18832588716798 57.19318563220705 54.87092050391758 0 0 0
386 129 2 -0.35 112.12782192721113 57.657992215380474 54.94082179971727 0 0 0
387 129 2 -0.35 114.24882984712482 56.72837904903362 54.80101920811789 0 0 0
388 130 1 0.7 126.5609093427476 40.20332355899891 57.25905609468886 0 0 0
389 130 2 -0.35 125.49107001525688 39.97712808406858 56.87191345886168 0 0 0
390 130 2 -0.35 127.63074867023833 40.42951903392924 57.64619873051604 0 0 0
391 131 1 0.7 97.9557834355886 68.852201937629 98.95796573066988 0 0 0
392 131 2 -0.35 97.22575581037101 68.06284763849393 99.39337296172623 0 0 0