LAMMPS data file via write_data, version 29 Aug 2024, timestep = 4000000, units = real

1500 atoms
2 atom types
1000 bonds
1 bond types
500 angles
1 angle types

0 133 xlo xhi
0 133 ylo yhi
0 133 zlo zhi

Masses

1 12.0107
2 15.9994

PairIJ Coeffs # lj/cut/coul/long/gpu

1 1 0.053649 2.8 12
1 2 0.0917684 2.925 12
2 2 0.156973 3.05 12

Bond Coeffs # harmonic

1 0 1.16

Angle Coeffs # harmonic

1 0 180

Atoms # full

1428 476 2 -0.35 37.933996363151195 15.233191200785441 7.932009909435836 5 -12 -1
1426 476 1 0.7 37.993002490638794 14.225388472792812 8.503369637074412 5 -12 -1
1427 476 2 -0.35 38.05200861812639 13.217585744800182 9.07472936471299 5 -12 -1
337 113 1 0.7 26.808377865515478 9.669178587535777 11.194818881909884 -5 0 3
338 113 2 -0.35 25.944822576766928 9.043939936594738 10.737709603244577 -5 0 3
339 113 2 -0.35 27.671933154264025 10.294417238476818 11.65192816057519 -5 0 3
1313 438 2 -0.35 42.930015392966396 18.783462788693612 10.050437350016766 -4 -1 7
1312 438 1 0.7 43.550937589428486 17.90294746853261 10.480261031195656 -4 -1 7
1080 360 2 -0.35 51.05261387098438 11.426424113697648 14.955303028812768 0 -4 2
1078 360 1 0.7 50.19593467296558 11.85463188163762 14.300827010033464 0 -4 2
1079 360 2 -0.35 49.339255474946775 12.282839649577593 13.646350991254161 0 -4 2
1332 444 2 -0.35 56.98687915036092 6.388843944717596 5.05364344142615 6 0 4
1330 444 1 0.7 56.574729969458076 5.322027615145822 5.2476433683363926 6 0 4
1331 444 2 -0.35 56.162580788555225 4.255211285574046 5.441643295246634 6 0 4
1344 448 2 -0.35 62.575547085582365 2.879697299998332 7.092515286750009 -2 -3 3
1342 448 1 0.7 62.27558758256889 3.8796714181793863 7.5981594892475774 -2 -3 3
1314 438 2 -0.35 44.171859785890575 17.022432148371607 10.910084712374546 -4 -1 7
1343 448 2 -0.35 61.97562807955541 4.8796455363604405 8.103803691745146 -2 -3 3
197 66 2 -0.35 76.94268136354734 16.98948354342384 19.927773559199842 -1 -4 8
196 66 1 0.7 76.05968068665833 16.482880900161067 20.483888265399006 -1 -4 8
198 66 2 -0.35 75.17668000976931 15.976278256898294 21.04000297159817 -1 -4 8
740 247 2 -0.35 78.36743013063575 8.624217935773855 9.752841696660004 -6 -1 -2
739 247 1 0.7 78.92689675083042 9.639773046747651 9.788125084566177 -6 -1 -2
741 247 2 -0.35 79.4863633710251 10.655328157721446 9.82340847247235 -6 -1 -2
1132 378 1 0.7 83.1060822900195 4.040358448448518 6.610206973512515 -7 -1 -5
1133 378 2 -0.35 82.76595366594304 2.991679992290199 6.971019964788752 -7 -1 -5
1134 378 2 -0.35 83.44621091409596 5.089036904606837 6.249393982236278 -7 -1 -5
1316 439 2 -0.35 97.25540427233324 11.2073755642034 12.009734329815995 9 2 3
1315 439 1 0.7 96.449971673234 11.506199317896172 12.789210238704072 9 2 3
1317 439 2 -0.35 95.64453907413477 11.805023071588945 13.56868614759215 9 2 3
1323 441 2 -0.35 98.96932154503907 17.227787247169335 22.753981637657613 13 -8 -9
842 281 2 -0.35 115.24666460235642 9.57530230801289 1.454931645740266 2 2 -1
841 281 1 0.7 114.35448456620374 9.674444914335233 2.1896326234865864 2 2 -1
843 281 2 -0.35 113.46230453005106 9.773587520657575 2.9243336012329073 2 2 -1
731 244 2 -0.35 20.883349217843076 36.74687131331035 7.561333822434578 -6 3 4
730 244 1 0.7 20.46545474135036 36.4522044255673 6.52011548232392 -6 3 4
732 244 2 -0.35 20.047560264857644 36.157537537824254 5.478897142213262 -6 3 4
11 4 2 -0.35 9.44944853679751 33.75207300139013 18.591430976316413 -1 -2 -1
12 4 2 -0.35 8.46136146640558 33.433998538936436 16.516602651451386 -1 -2 -1
10 4 1 0.7 8.955405001601545 33.59303577016328 17.554016813883898 -1 -2 -1
976 326 1 0.7 20.74458204903088 37.71562505592502 2.0114922679084306 -1 1 6
977 326 2 -0.35 19.833627939469007 38.43252636652368 2.0540965063775434 -1 1 6
978 326 2 -0.35 21.655536158592753 36.99872374532635 1.968888029439318 -1 1 6
455 152 2 -0.35 13.544656893380285 25.794804471688046 7.3119536879652856 -2 0 1
454 152 1 0.7 14.202717187976033 26.727409286265974 7.1050602165789085 -2 0 1
456 152 2 -0.35 14.860777482571782 27.660014100843902 6.898166745192531 -2 0 1
495 165 2 -0.35 8.268962400550803 35.64105588966748 22.46831276829984 -6 -3 -2
493 165 1 0.7 7.389229999538276 36.32115415381734 22.798672048039077 -6 -3 -2
494 165 2 -0.35 6.50949759852575 37.0012524179672 23.12903132777831 -6 -3 -2
810 270 2 -0.35 35.63206397031617 24.716605172597035 9.403818716830363 5 -2 1
808 270 1 0.7 35.40875515118624 25.8467101711072 9.540185368330818 5 -2 1
809 270 2 -0.35 35.185446332056316 26.976815169617364 9.676552019831272 5 -2 1
363 121 2 -0.35 34.296244372076906 27.472735178903758 3.8293904585676195 5 -7 -2
361 121 1 0.7 33.334153800016225 26.89253198584616 4.1180875072523015 5 -7 -2
362 121 2 -0.35 32.37206322795555 26.31232879278856 4.406784555936984 5 -7 -2
122 41 2 -0.35 44.45155772680303 38.89145215010955 6.017544440962923 2 2 2
121 41 1 0.7 44.10256629676538 39.97113625129684 5.776531529680844 2 2 2
123 41 2 -0.35 43.75357486672773 41.05082035248413 5.535518618398767 2 2 2
5 2 2 -0.35 33.09790960111682 44.225709474331204 20.356085667557636 -2 -2 -4
596 199 2 -0.35 48.32486500138893 26.24776580510064 5.958543739150403 10 -3 2
595 199 1 0.7 49.20730343812437 26.92672398623271 6.2839944937116545 10 -3 2
597 199 2 -0.35 50.08974187485981 27.605682167364776 6.609445248272906 10 -3 2
419 140 2 -0.35 52.0691185127705 31.867186132940944 2.929643514209647 -4 6 2
418 140 1 0.7 52.91820113365623 32.58868718727887 3.252280975612826 -4 6 2
1128 376 2 -0.35 56.5673101397174 38.38181814452409 7.8511789966490255 -2 0 -4
1126 376 1 0.7 57.14920780305959 39.36129079020994 7.632939573649741 -2 0 -4
1127 376 2 -0.35 57.73110546640178 40.3407634358958 7.414700150650458 -2 0 -4
420 140 2 -0.35 53.76728375454197 33.31018824161681 3.574918437016005 -4 6 2
300 100 2 -0.35 57.31655645647541 25.052881368607867 20.79801140176946 4 0 1
298 100 1 0.7 57.13130218611532 24.491163953508803 19.800136459261076 4 0 1
299 100 2 -0.35 56.94604791575523 23.929446538409735 18.80226151675269 4 0 1
1368 456 2 -0.35 68.35913634483033 31.575939522802667 0.6580792244786455 2 4 -1
1366 456 1 0.7 68.20207668762762 31.315299974199966 1.7774537327569153 2 4 -1
1367 456 2 -0.35 68.04501703042493 31.054660425597266 2.896828241035185 2 4 -1
101 34 2 -0.35 79.79603917791547 25.13810907854214 0.5565222593110799 2 -1 -2
100 34 1 0.7 79.4520193282952 26.24139424815791 0.4564613899737169 2 -1 -2
58 20 1 0.7 76.84049693446634 38.86144744371777 1.5420673445856514 0 3 5
60 20 2 -0.35 75.93353792398806 38.76189433181882 2.2583874763869263 0 3 5
930 310 2 -0.35 101.93347751717192 43.431270152659806 2.3115251112593524 1 3 6
928 310 1 0.7 102.55077111792946 43.94020332435795 1.4715634233189292 1 3 6
929 310 2 -0.35 103.16806471868699 44.4491364960561 0.6316017353785061 1 3 6
1400 467 2 -0.35 100.60695651664784 38.873529591772716 11.01729196436135 3 2 3
1401 467 2 -0.35 99.75258416286405 41.016064729191015 10.76831191291109 3 2 3
1399 467 1 0.7 100.17977033975595 39.94479716048186 10.89280193863622 3 2 3
13 5 1 0.7 18.683363635824403 63.66793340776808 19.150084278156367 1 -7 5
15 5 2 -0.35 17.871944056718796 64.13598179665345 19.834283790220272 1 -7 5
14 5 2 -0.35 19.494783214930013 63.19988501888271 18.46588476609246 1 -7 5
1486 496 1 0.7 18.53178807231344 61.40035108754391 22.04646297745182 2 2 4
1488 496 2 -0.35 17.97273077331639 60.42767288326536 22.34133930298486 2 2 4
6 2 2 -0.35 31.349629183057687 45.72072057873407 20.65751124302873 -2 -2 -4
4 2 1 0.7 32.22376939208725 44.973215026532635 20.506798455293183 -2 -2 -4
980 327 2 -0.35 30.76019187691464 59.26811383891843 10.333501818990733 -4 -5 6
979 327 1 0.7 29.99907537686332 58.57779811281859 10.871800873094008 -4 -5 6
981 327 2 -0.35 29.237958876812 57.88748238671876 11.410099927197283 -4 -5 6
668 223 2 -0.35 40.78724104380362 55.741737905825815 132.69328120509672 0 -2 1
663 221 2 -0.35 47.92914903076007 55.02650315930236 10.46221726913844 1 -7 -6
661 221 1 0.7 47.421236032962554 54.088082545766724 10.007254480815607 1 -7 -6
662 221 2 -0.35 46.913323035165035 53.14966193223108 9.552291692492775 1 -7 -6
206 69 2 -0.35 47.926697584501916 56.19836428822728 15.838625312595665 -7 0 -3
205 69 1 0.7 48.690888137210294 56.97084274834809 15.432559027608798 -7 0 -3
207 69 2 -0.35 49.455078689918665 57.743321208468906 15.02649274262193 -7 0 -3
885 295 2 -0.35 52.99323928716561 53.16679510882562 14.577682750533326 -5 -1 -2
883 295 1 0.7 52.883322333005076 53.06532890986798 13.4273685005746 -5 -1 -2
884 295 2 -0.35 52.77340537884455 52.96386271091034 12.277054250615876 -5 -1 -2
1241 414 2 -0.35 100.61661988751061 47.63076863004488 12.061559869407786 -1 -1 1
1240 414 1 0.7 101.62175317943249 47.70618528814412 12.635684762745031 -1 -1 1
1242 414 2 -0.35 102.62688647135438 47.78160194624336 13.209809656082276 -1 -1 1
1065 355 2 -0.35 128.81341051048997 50.768683924247675 18.514293793643063 3 6 -1
1025 342 2 -0.35 127.25770242326784 50.93000325013454 9.48033783351607 -3 -5 7
177 59 2 -0.35 116.50841634165607 53.94980337259549 1.3176293229752982 5 5 2
1024 342 1 0.7 127.76345165214245 51.5088420685625 10.349109000036043 -3 -5 7
1063 355 1 0.7 129.23896914917785 51.50438858419725 17.724839236139502 3 6 -1
1026 342 2 -0.35 128.26920088101707 52.08768088699046 11.217880166556014 -3 -5 7
175 59 1 0.7 116.03038455853871 54.6019330301531 2.149382005004392 5 5 2
1064 355 2 -0.35 129.6645277878657 52.24009324414683 16.935384678635945 3 6 -1
176 59 2 -0.35 115.55235277542135 55.254062687710714 2.981134687033486 5 5 2
1163 388 2 -0.35 7.852199188646383 84.07805047305509 12.090369144769562 5 6 -6
1164 388 2 -0.35 5.7322160471987935 83.49019915899719 12.826916707748644 5 6 -6
1162 388 1 0.7 6.792207617922592 83.78412481602614 12.458642926259103 5 6 -6
411 137 2 -0.35 10.828048575205253 83.99184323066838 13.71827335067602 -7 -3 2
409 137 1 0.7 10.739308548492847 83.98973754126378 14.874872146166874 -7 -3 2
410 137 2 -0.35 10.650568521780441 83.98763185185918 16.03147094165773 -7 -3 2
275 92 2 -0.35 25.420718816863136 81.87137451486628 22.440132990164983 7 0 4
274 92 1 0.7 24.416236102028694 81.30149382229828 22.33127311768015 7 0 4
276 92 2 -0.35 23.411753387194256 80.73161312973029 22.22241324519532 7 0 4
74 25 2 -0.35 24.30513718582886 86.72483788038558 14.150691754239647 5 3 -5
73 25 1 0.7 25.221953083475512 86.07304981764412 13.867458756357886 5 3 -5
75 25 2 -0.35 26.138768981122166 85.42126175490264 13.584225758476125 5 3 -5
68 23 2 -0.35 43.50000350868053 89.2913815452244 16.825187252435217 1 -1 -1
67 23 1 0.7 43.9746942226549 88.35091712609746 16.33959956475935 1 -1 -1
69 23 2 -0.35 44.449384936629265 87.41045270697052 15.854011877083485 1 -1 -1
1430 477 2 -0.35 48.70908348453774 89.61846652771536 22.540614518444805 -8 3 -2
1429 477 1 0.7 49.27353946248736 89.01261073140772 21.728254867159567 -8 3 -2
1431 477 2 -0.35 49.837995440436984 88.40675493510008 20.91589521587433 -8 3 -2
1059 353 2 -0.35 66.7951813958722 79.79892592183378 2.002331546946089 5 7 0
1057 353 1 0.7 67.7623265377882 79.19658636747529 1.7845763272033244 5 7 0
1058 353 2 -0.35 68.72947167970419 78.59424681311681 1.56682110746056 5 7 0
1333 445 1 0.7 81.02914634840211 78.46323533433434 16.72525245576777 -3 4 -4
1334 445 2 -0.35 80.6387914810037 77.49052874184001 16.228196158735805 -3 4 -4
1335 445 2 -0.35 81.41950121580051 79.43594192682868 17.222308752799737 -3 4 -4
1106 369 2 -0.35 70.07343784964817 76.49662101761446 7.167263638979307 -2 -2 -1
1105 369 1 0.7 69.61415629866816 77.19139190568673 6.359827034645613 -2 -2 -1
1107 369 2 -0.35 69.15487474768815 77.88616279375898 5.5523904303119185 -2 -2 -1
617 206 2 -0.35 89.65079306536119 81.41970466278599 9.887046143577928 -3 -3 -1
1353 451 2 -0.35 87.12694781488148 71.42783829163847 11.04849793556781 8 2 8
1351 451 1 0.7 87.06438500864286 72.53846954331765 11.377411477501306 8 2 8
1352 451 2 -0.35 87.00182220240426 73.64910079499681 11.706325019434804 8 2 8
965 322 2 -0.35 88.58458606378775 68.59936417582551 19.062787323062366 0 -10 -6
616 206 1 0.7 90.40628076148877 80.80165016703683 9.260271079232435 -3 -3 -1
966 322 2 -0.35 90.58620603087213 69.77222646395212 19.045136247951568 0 -10 -6
1274 425 2 -0.35 103.69375400029134 68.64956306489792 5.990533752576224 -3 3 4
618 206 2 -0.35 91.16176845761636 80.18359567128766 8.633496014886942 -3 -3 -1
1275 425 2 -0.35 104.84463728232511 67.41135563224226 4.401600140099658 -3 3 4
1273 425 1 0.7 104.26919564130822 68.03045934857009 5.196066946337936 -3 3 4
964 322 1 0.7 89.58539604732995 69.18579531988881 19.053961785506967 0 -10 -6
385 129 1 0.7 108.7291845310976 82.49956770450444 2.4120519085844903 7 -2 -2
386 129 2 -0.35 107.71933716961993 82.85350417691757 1.964238018655448 7 -2 -2
387 129 2 -0.35 109.73903189257527 82.14563123209132 2.8598657985135323 7 -2 -2
684 228 2 -0.35 108.58955051162788 72.60168329988886 22.058937444325878 1 1 -6
677 226 2 -0.35 130.90887034866898 70.83839715720042 8.467876243731572 -2 0 5
676 226 1 0.7 130.8962055721708 71.40106817294797 9.482194207427387 -2 0 5
678 226 2 -0.35 130.88354079567264 71.96373918869551 10.496512171123202 -2 0 5
1205 402 2 -0.35 129.19043435806 70.38588667395733 6.340393999328388 1 3 -3
1286 429 2 -0.35 121.35173019469087 70.29273201747576 17.350192291683403 -3 4 3
1285 429 1 0.7 122.01550536044915 69.8544984465899 18.194558247103 -3 4 3
1204 402 1 0.7 129.3851088181461 69.2482393480692 6.456413034354647 1 3 -3
1287 429 2 -0.35 122.67928052620745 69.41626487570404 19.038924202522598 -3 4 3
1206 402 2 -0.35 129.5797832782322 68.11059202218107 6.5724320693809055 1 3 -3
1217 406 2 -0.35 132.88534242591163 79.54235038757916 5.52777514331985 0 2 5
1216 406 1 0.7 0.4768630294633643 78.82922218885737 4.829812717567845 1 2 5
1218 406 2 -0.35 1.0683836330151129 78.11609399013558 4.131850291815839 1 2 5
874 292 1 0.7 121.62641834854482 81.14089209838667 1.7233077865746733 0 4 -1
875 292 2 -0.35 120.70751098628311 80.43318064857921 1.7044991876754123 0 4 -1
876 292 2 -0.35 122.54532571080654 81.84860354819415 1.742116385473934 0 4 -1
1230 410 2 -0.35 40.07892371213739 102.54156264530009 13.659508306805604 -1 -2 -4
1229 410 2 -0.35 38.63014482683121 101.75118224624717 12.028944426954375 -1 -2 -4
1228 410 1 0.7 39.3545342694843 102.14637244577362 12.844226366879989 -1 -2 -4
63 21 2 -0.35 35.73012304190491 92.86094593298252 14.164469327319296 -3 0 -2
317 106 2 -0.35 22.63446868934861 95.0101682394851 4.4099828367152725 1 -10 0
316 106 1 0.7 23.24400512125484 95.8108231088714 4.987059190682114 1 -10 0
318 106 2 -0.35 23.853541553161072 96.61147797825771 5.564135544648956 1 -10 0
61 21 1 0.7 35.06191585683982 93.02202655125818 15.098895457220431 -3 0 -2
62 21 2 -0.35 34.393708671774725 93.18310716953384 16.033321587121566 -3 0 -2
539 180 2 -0.35 49.402978858181214 96.47898430861905 2.2635143524350165 2 -7 -5
540 180 2 -0.35 49.98448664215949 95.06640455686309 4.009614905697096 2 -7 -5
538 180 1 0.7 49.69373275017035 95.77269443274106 3.1365646290660565 2 -7 -5
1293 431 2 -0.35 62.0354423182624 93.89814111896031 16.87282845711937 -3 -1 7
1291 431 1 0.7 62.95586482238012 94.47420792217079 17.280957667238727 -3 -1 7
1301 434 2 -0.35 66.72812484487659 103.69366157536662 10.324805676804907 -5 -2 6
1300 434 1 0.7 67.22544505474679 103.97917422500367 9.316462909810136 -5 -2 6
1292 431 2 -0.35 63.876287326497845 95.05027472538127 17.689086877358083 -3 -1 7
1302 434 2 -0.35 67.722765264617 104.26468687464073 8.308120142815365 -5 -2 6
264 88 2 -0.35 72.95330065186315 96.30113111432887 5.4779183361990835 -8 -3 0
262 88 1 0.7 72.34197005558455 96.57173879045476 6.425887949465229 -8 -3 0
263 88 2 -0.35 71.73063945930595 96.84234646658065 7.373857562731374 -8 -3 0
925 309 1 0.7 83.93970640756879 100.36768566426113 23.056613129835423 1 9 2
926 309 2 -0.35 84.60572794542018 101.31735462080306 23.044605461526373 1 9 2
927 309 2 -0.35 83.2736848697174 99.41801670771919 23.068620798144472 1 9 2
353 118 2 -0.35 73.20721935110683 107.58317485627232 1.8361178699869498 -3 1 -1
352 118 1 0.7 74.2657947365736 107.84566480059613 1.441001200619802 -3 1 -1
354 118 2 -0.35 75.32437012204036 108.10815474491994 1.0458845312526543 -3 1 -1
165 55 2 -0.35 113.7173217113647 104.58464173269725 6.94659539044247 3 -2 3
164 55 2 -0.35 113.04318012895244 105.16953939133388 4.805140778320275 3 -2 3
163 55 1 0.7 113.38025092015857 104.87709056201557 5.875868084381372 3 -2 3
489 163 2 -0.35 129.72717199246875 107.64958107860333 4.522623140862144 2 0 -3
487 163 1 0.7 128.97390665650443 107.27872376355053 3.722213129989064 2 0 -3
488 163 2 -0.35 128.22064132054012 106.90786644849773 2.921803119115985 2 0 -3
491 164 2 -0.35 126.72646751458747 100.3867978364984 22.14190971469419 -1 -2 3
27 9 2 -0.35 4.000656382630124 121.06837351531338 3.629766955229603 -2 0 4
25 9 1 0.7 3.2336476654283755 121.63243637507608 4.292436343365248 -2 0 4
26 9 2 -0.35 2.4666389482266267 122.1964992348388 4.955105731500893 -2 0 4
1061 354 2 -0.35 23.888067554710535 125.79916045163719 1.614270284141356 -9 8 2
1060 354 1 0.7 22.941335126466605 126.41905015595205 1.8692888399290557 -9 8 2
1062 354 2 -0.35 21.994602698222675 127.03893986026691 2.1243073957167553 -9 8 2
1278 426 2 -0.35 38.849297833747805 123.74813665109254 9.018419083947373 1 -7 -3
1276 426 1 0.7 38.558158727502075 124.19676120383855 7.989062959233283 1 -7 -3
1277 426 2 -0.35 38.267019621256345 124.64538575658456 6.959706834519192 1 -7 -3
1113 371 2 -0.35 64.78715763972602 117.44014540608055 0.5194426413922664 10 -4 -1
1111 371 1 0.7 64.0522070859705 117.63515641386552 132.64341844630584 10 -4 -2
1373 458 2 -0.35 62.38700921226928 114.35777083268334 20.080348752772537 1 -1 5
1374 458 2 -0.35 62.506430884775384 113.04264163646616 18.17284418884669 1 -1 5
1372 458 1 0.7 62.44672004852233 113.70020623457475 19.126596470809613 1 -1 5
704 235 2 -0.35 58.54493426466395 126.5459852171364 10.83871671460763 -7 -1 -3
705 235 2 -0.35 60.808430297457434 126.90954096893923 10.48260869045991 -7 -1 -3
703 235 1 0.7 59.67668228106069 126.72776309303782 10.66066270253377 -7 -1 -3
230 77 2 -0.35 69.64140450998545 116.8828818447948 2.306551507872195 -1 -1 -2
231 77 2 -0.35 69.47011909659288 119.18564636054765 2.0821926610484733 -1 -1 -2
229 77 1 0.7 69.55576180328916 118.03426410267122 2.1943720844603343 -1 -1 -2
287 96 2 -0.35 130.56888720713903 118.0920692563122 6.272939097456369 -4 0 1
286 96 1 0.7 130.4701568835343 119.22250548169028 6.513700937359842 -4 0 1
288 96 2 -0.35 130.37142655992955 120.35294170706835 6.754462777263315 -4 0 1
1345 449 1 0.7 15.87579049693167 13.900447482070444 27.397569442565977 -5 3 3
1347 449 2 -0.35 14.757358004867982 14.179710380721223 27.268259759509963 -5 3 3
1346 449 2 -0.35 16.994222988995357 13.621184583419664 27.526879125621992 -5 3 3
1007 336 2 -0.35 10.20912039460951 12.197687467295458 43.77654663837604 -2 -3 -4
1006 336 1 0.7 9.064660506834908 12.375997959850316 43.713167355323016 -2 -3 -4
1008 336 2 -0.35 7.920200619060305 12.554308452405177 43.64978807226999 -2 -3 -4
642 214 2 -0.35 4.92271874289723 8.352602662543053 27.108615510921574 4 -4 2
640 214 1 0.7 5.208543323350916 8.694087243891767 26.037498061755347 4 -4 2
641 214 2 -0.35 5.494367903804603 9.03557182524048 24.966380612589116 4 -4 2
1044 348 2 -0.35 27.78107275868714 17.382213788611917 23.487269259125625 -4 2 2
1042 348 1 0.7 28.893119366683184 17.71227957636673 23.48428305800796 -4 2 2
1043 348 2 -0.35 30.005165974679226 18.042345364121545 23.481296856890292 -4 2 2
1180 394 1 0.7 38.2765023715592 18.526122154806878 26.592485406964066 3 3 0
1181 394 2 -0.35 38.18858284290684 18.91983603998228 25.504891947484655 3 3 0
1182 394 2 -0.35 38.36442190021155 18.132408269631476 27.680078866443473 3 3 0
453 151 2 -0.35 27.74991376420167 6.5288316834880415 35.48606931983518 -2 2 1
451 151 1 0.7 28.08616331605233 5.923096697490713 34.55568156968947 -2 2 1
452 151 2 -0.35 28.422412867902988 5.317361711493385 33.62529381954376 -2 2 1
789 263 2 -0.35 41.66882376478344 4.434422417348849 40.01590946461175 4 -2 -6
1376 459 2 -0.35 23.468351569469984 20.24777842678775 42.49068544044686 2 0 0
788 263 2 -0.35 42.20595026867494 2.7247229069478673 41.489280667992034 4 -2 -6
787 263 1 0.7 41.93738701672919 3.579572662148358 40.75259506630189 4 -2 -6
1375 459 1 0.7 23.769963366409566 21.09546049884396 41.75852054873224 2 0 0
646 216 1 0.7 63.71760342314753 12.41576864612159 32.98215227902503 2 2 0
648 216 2 -0.35 63.07390007913428 13.273871367911854 32.540670995434205 2 2 0
647 216 2 -0.35 64.36130676716077 11.557665924331326 33.42363356261585 2 2 0
311 104 2 -0.35 62.7196087646465 8.644527764365634 28.981493137831194 -2 1 1
310 104 1 0.7 63.232447558288804 9.674500323532351 28.834004497254536 -2 1 1
312 104 2 -0.35 63.745286351931114 10.704472882699068 28.686515856677875 -2 1 1
380 127 2 -0.35 67.78978187260905 8.586760484124332 31.095026250190276 2 2 0
379 127 1 0.7 66.83904533433022 8.097806775344466 31.545164346169145 2 2 0
381 127 2 -0.35 65.88830879605139 7.6088530665646 31.995302442148013 2 2 0
522 174 2 -0.35 67.05377180195039 16.54177382038308 37.18407644587162 -1 -2 -1
521 174 2 -0.35 69.3242089360383 16.93297749607009 37.456977351482315 -1 -2 -1
520 174 1 0.7 68.18899036899434 16.737375658226586 37.32052689867697 -1 -2 -1
1321 441 1 0.7 99.69788392584128 17.14911263608108 23.653207506308323 13 -8 -9
1322 441 2 -0.35 100.4264463066435 17.07043802499283 24.552433374959033 13 -8 -9
251 84 2 -0.35 115.6155752611264 14.945613015151984 23.51009282870562 0 -1 -4
250 84 1 0.7 115.27646551976584 13.836677536165089 23.539532372798334 0 -1 -4
252 84 2 -0.35 114.93735577840529 12.727742057178194 23.568971916891048 0 -1 -4
1088 363 2 -0.35 130.74060437587298 6.572825776820898 41.878796539248185 1 -4 1
1089 363 2 -0.35 129.82200919235416 8.1490095753898 43.312054199946395 1 -4 1
1087 363 1 0.7 130.28130678411358 7.360917676105348 42.595425369597294 1 -4 1
170 57 2 -0.35 115.9035809526405 6.804579949924928 28.87284632514068 -3 3 -2
169 57 1 0.7 114.80807436593942 6.705372778823338 28.504575696801577 -3 3 -2
171 57 2 -0.35 113.71256777923834 6.606165607721747 28.136305068462473 -3 3 -2
219 73 2 -0.35 8.571959851624703 40.6798547985222 28.045347656233346 5 6 -2
217 73 1 0.7 9.24122466404356 40.39071426189146 28.947612784083805 5 6 -2
218 73 2 -0.35 9.910489476462416 40.10157372526072 29.84987791193426 5 6 -2
1382 461 2 -0.35 1.4208181116650795 24.918125086700982 30.49776540487519 6 -1 6
1383 461 2 -0.35 2.1665832599314827 24.217235076139723 32.579828693231306 6 -1 6
1381 461 1 0.7 1.793700685798281 24.567680081420352 31.538797049053247 6 -1 6
936 312 2 -0.35 37.7031389965739 31.66902213864717 44.4269143212894 9 1 -7
934 312 1 0.7 37.12614097971414 32.20090416174641 43.57264574405886 9 1 -7
935 312 2 -0.35 36.549142962854376 32.73278618484565 42.71837716682832 9 1 -7
1377 459 2 -0.35 24.071575163349145 21.94314257090017 41.02635565701762 2 0 0
1092 364 2 -0.35 41.27364271044137 35.73079067987051 32.21532617917642 4 -5 -2
1091 364 2 -0.35 39.1007571130238 36.35903157495039 31.699301413985793 4 -5 -2
1090 364 1 0.7 40.18719991173259 36.04491112741045 31.957313796581108 4 -5 -2
777 259 2 -0.35 48.802524387392225 29.911282109173204 42.362428041618415 3 3 4
775 259 1 0.7 47.969518855740134 29.407556502595824 41.73158551173218 3 3 4
776 259 2 -0.35 47.13651332408805 28.903830896018444 41.10074298184593 3 3 4
753 251 2 -0.35 68.48555387658493 38.10992850567232 39.058038742543516 2 9 -9
751 251 1 0.7 67.7902351309237 38.981328303005775 38.73742334188715 2 9 -9
752 251 2 -0.35 67.09491638526248 39.85272810033923 38.416807941230786 2 9 -9
1307 436 2 -0.35 63.71682961540862 29.530571803461637 40.08036181706431 -3 1 -5
1308 436 2 -0.35 64.97943775128014 30.779491425345313 41.573151311036135 -3 1 -5
1306 436 1 0.7 64.34813368334439 30.155031614403477 40.82675656405022 -3 1 -5
1294 432 1 0.7 78.32675629035904 35.79554811902844 37.806038022160074 3 1 0
1296 432 2 -0.35 79.45005823264702 36.060410079437226 37.92283223597932 3 1 0
1295 432 2 -0.35 77.20345434807105 35.53068615861965 37.68924380834082 3 1 0
1076 359 2 -0.35 83.7449520458911 33.58694502371976 27.993603353113443 -6 0 -1
1075 359 1 0.7 83.1666694708158 32.60803887080664 28.223672923361026 -6 0 -1
1077 359 2 -0.35 82.5883868957405 31.62913271789352 28.45374249360861 -6 0 -1
1170 390 2 -0.35 68.15743480405071 25.950743400426123 44.47472104521473 1 -2 2
1168 390 1 0.7 67.416190161238 26.836242395441808 44.364958076377185 1 -2 2
1169 390 2 -0.35 66.6749455184253 27.721741390457492 44.25519510753965 1 -2 2
923 308 2 -0.35 72.61864725138574 29.05945135047518 28.953643106461875 -3 -6 1
922 308 1 0.7 71.72022866754139 28.346918852850553 29.128975613518993 -3 -6 1
924 308 2 -0.35 70.82181008369706 27.634386355225928 29.304308120576113 -3 -6 1
1141 381 1 0.7 78.73365531293132 31.082981540629536 29.270431515279054 -4 3 -5
1143 381 2 -0.35 79.3328657993361 31.707058295237943 30.043137796693728 -4 3 -5
1142 381 2 -0.35 78.13444482652653 30.45890478602113 28.49772523386438 -4 3 -5
1010 337 2 -0.35 79.45198209634788 44.96939455995172 38.78445441034794 2 -6 4
959 320 2 -0.35 104.75970812840927 39.9923850326318 28.13274828698192 -4 -3 2
958 320 1 0.7 103.93948241812141 39.9744028140837 27.312683396868056 -4 -3 2
960 320 2 -0.35 103.11925670783356 39.956420595535604 26.49261850675419 -4 -3 2
1085 362 2 -0.35 97.22776428079212 29.806570847595673 30.682642365179856 -1 -2 -1
1084 362 1 0.7 97.61688905078508 30.451825044638852 31.564588471569564 -1 -2 -1
1086 362 2 -0.35 98.00601382077805 31.097079241682028 32.44653457795927 -1 -2 -1
891 297 2 -0.35 95.85386418168662 30.118433134591314 41.73086077308425 11 1 -1
889 297 1 0.7 95.03087907238044 30.87458152292019 41.42015975170341 11 1 -1
890 297 2 -0.35 94.20789396307427 31.630729911249073 41.109458730322565 11 1 -1
938 313 2 -0.35 102.0409134344748 40.86116658898791 36.34888116169747 1 1 2
937 313 1 0.7 100.99995691275058 40.38301149594647 36.531575515408065 1 1 2
939 313 2 -0.35 99.95900039102635 39.904856402905025 36.71426986911866 1 1 2
161 54 2 -0.35 100.1568286753145 24.26392873557832 23.328058968138276 2 1 0
162 54 2 -0.35 99.6274153404666 25.81651818021717 24.96866481272256 2 1 0
160 54 1 0.7 99.89212200789055 25.040223457897746 24.14836189043042 2 1 0
888 296 2 -0.35 92.99454585986444 29.815074000805513 38.067461535749366 -4 3 -1
886 296 1 0.7 92.45467665201598 30.50212996129335 37.304509803609996 -4 3 -1
887 296 2 -0.35 91.91480744416752 31.18918592178118 36.541558071470625 -4 3 -1
1326 442 2 -0.35 109.73182246496302 43.94517703534212 34.174469785557456 0 2 -9
1324 442 1 0.7 109.86979194103392 42.88352161325479 33.72786908198956 0 2 -9
1325 442 2 -0.35 110.00776141710482 41.821866191167466 33.281268378421665 0 2 -9
1151 384 2 -0.35 107.5382507724221 42.253440196920174 45.57173525124087 -8 0 0
721 241 1 0.7 116.77856270529267 27.33063721240829 36.376693757340554 -1 5 -4
723 241 2 -0.35 116.37874627016244 26.67550192953157 37.2464894686022 -1 5 -4
722 241 2 -0.35 117.1783791404229 27.985772495285012 35.50689804607891 -1 5 -4
761 254 2 -0.35 132.15740024144588 44.70234086891658 22.015627240511662 -5 -2 -6
760 254 1 0.7 131.9278385699809 43.75580407551347 22.645682426767994 -5 -2 -6
1439 480 2 -0.35 116.63249169073666 37.030014527180825 43.62706482364333 -1 3 2
1487 496 2 -0.35 19.090845371310486 62.37302929182247 21.75158665191878 2 2 4
695 232 2 -0.35 8.580906506022762 61.505206721797045 30.1480895405903 3 4 -5
986 329 2 -0.35 4.621979710240757 51.74403419525152 38.12285993904614 2 1 2
985 329 1 0.7 5.570466933367793 52.41153531552056 38.102507002996354 2 1 2
987 329 2 -0.35 6.5189541564948295 53.0790364357896 38.08215406694657 2 1 2
694 232 1 0.7 8.06596944143865 61.69276292641254 29.125708745765426 3 4 -5
696 232 2 -0.35 7.551032376854538 61.88031913102804 28.103327950940553 3 4 -5
83 28 2 -0.35 14.174125123152338 67.97381606071983 38.32384136704093 2 -2 1
82 28 1 0.7 14.181450210515159 67.51465759943167 37.25860906818665 2 -2 1
84 28 2 -0.35 14.18877529787798 67.0554991381435 36.193376769332374 2 -2 1
1159 387 1 0.7 8.993688333842991 48.30142446316742 35.920854837145 0 -2 -3
1161 387 2 -0.35 9.831785317936792 47.862261095607536 36.591920394187476 0 -2 -3
1160 387 2 -0.35 8.155591349749189 48.74058783072731 35.249789280102526 0 -2 -3
34 12 1 0.7 22.545436663886523 46.66474565068543 41.50997897869304 -2 10 8
35 12 2 -0.35 22.48096349424422 46.85373658043765 40.367295453448406 -2 10 8
36 12 2 -0.35 22.609909833528828 46.475754720933224 42.652662503937684 -2 10 8
578 193 2 -0.35 26.555583595292585 48.56195447023106 40.13868852237749 -4 1 1
577 193 1 0.7 27.593461010016767 48.81952082238425 40.58821054213132 -4 1 1
579 193 2 -0.35 28.63133842474095 49.07708717453744 41.03773256188516 -4 1 1
549 183 2 -0.35 35.53624196544369 59.820434068469595 25.795886869258325 4 1 6
547 183 1 0.7 36.567658634723024 59.745307321027475 25.270400783663867 4 1 6
548 183 2 -0.35 37.599075304002355 59.670180573585355 24.744914698069408 4 1 6
1385 462 2 -0.35 33.4399470720835 53.92944937481655 42.95639639254566 -2 -2 -5
1384 462 1 0.7 33.461229989851255 53.457966657747 44.01604307182779 -2 -2 -5
85 29 1 0.7 59.905884531619606 59.77958791196922 29.231323452451303 -4 5 4
86 29 2 -0.35 59.24321170371819 60.66354688997117 28.877655177976436 -4 5 4
87 29 2 -0.35 60.56855735952102 58.895628933967274 29.58499172692617 -4 5 4
711 237 2 -0.35 45.69307519703963 62.03918463949472 30.52567986117792 -3 -1 1
709 237 1 0.7 45.47919041038111 63.101344250828156 30.111348763997142 -3 -1 1
710 237 2 -0.35 45.265305623722575 64.16350386216159 29.697017666816368 -3 -1 1
983 328 2 -0.35 46.47639372171184 56.56153650252947 40.134347160002655 3 -6 2
982 328 1 0.7 46.18167811271257 55.72026112649315 40.8766398593397 3 -6 2
984 328 2 -0.35 45.8869625037133 54.87898575045682 41.61893255867674 3 -6 2
348 116 2 -0.35 69.49070716406762 48.262625806954254 40.63305168913061 -3 -1 -3
346 116 1 0.7 68.66028120897022 48.781270947383305 41.255144890676576 -3 -1 -3
347 116 2 -0.35 67.82985525387282 49.299916087812356 41.87723809222255 -3 -1 -3