LAMMPS (29 Aug 2024 - Update 1)
  using 1 OpenMP thread(s) per MPI task
package gpu 1 gpuID 0
# GCMC for CO2 molecular fluid, rigid/small/nvt dynamics
# Rigid CO2 TraPPE model
# [Potoff and J.I. Siepmann, Vapor-liquid equilibria of
# mixtures containing alkanes, carbon dioxide and
# nitrogen AIChE J., 47,1676-1682 (2001)].

# global model settings

units           real
atom_style      full
boundary        p p p
pair_style      lj/cut/coul/long  12
pair_modify     mix arithmetic shift yes
kspace_style    pppm 1.0e-4
bond_style      harmonic
angle_style     harmonic
neigh_modify    one 4000

# box, start molecules on simple cubic lattice
region          mbox block 0 ${lbox} 0 ${lbox} 0 ${lbox} units box
region          mbox block 0 133 0 ${lbox} 0 ${lbox} units box
region          mbox block 0 133 0 133 0 ${lbox} units box
region          mbox block 0 133 0 133 0 133 units box
create_box      2 mbox                                       bond/types 1                                angle/types 1                               extra/bond/per/atom 2                       extra/angle/per/atom 1                      extra/special/per/atom 2
Created orthogonal box = (0 0 0) to (133 133 133)
  1 by 1 by 1 MPI processor grid
molecule        co2mol ../CO2.txt
Read molecule template co2mol:
# CO2 molecule file. TraPPE model.
  1 molecules
  0 fragments
  3 atoms with max type 2
  2 bonds with max type 1
  1 angles with max type 1
  0 dihedrals with max type 0
  0 impropers with max type 0
create_atoms   	0 random ${nmols} 34578 mbox mol co2mol 464563 overlap 1.2
create_atoms   	0 random 500 34578 mbox mol co2mol 464563 overlap 1.2
Created 1500 atoms
  using lattice units in orthogonal box = (0 0 0) to (133 133 133)
  create_atoms CPU = 0.013 seconds

# rigid CO2 TraPPE model

pair_coeff      1   1  0.053649   2.800
pair_coeff      2   2  0.156973   3.050
bond_coeff      1       0       1.16
angle_coeff     1       0       180

# masses

mass 1 12.0107
mass 2 15.9994

write_data init_conf.data  pair ij
System init for write_data ...
PPPM initialization ...
  using 12-bit tables for long-range coulomb (src/kspace.cpp:342)
  G vector (1/distance) = 0.16213167
  grid = 27 27 27
  stencil order = 5
  estimated absolute RMS force accuracy = 0.038078778
  estimated relative force accuracy = 0.00011467311
  using double precision FFTW3
  3d grid and FFT values/proc = 32768 19683
Generated 1 of 1 mixed pair_coeff terms from arithmetic mixing rule

# MD settings

group           co2 type 1 2
1500 atoms in group co2
velocity       	all create 300 54654
timestep        0.25

# rigid constraints with thermostat
fix             myrigidnvt co2 rigid/nvt molecule temp 300 300 $(100*dt)
fix             myrigidnvt co2 rigid/nvt molecule temp 300 300 25
  500 rigid bodies with 1500 atoms

thermo 1000
thermo_style custom step temp density press ke pe etotal


variable    mvol equal vol
variable    mden equal density
variable	mtmp equal temp
variable    mpre equal press

fix mydat all ave/time 1 4000 4000 v_mtmp v_mden v_mpre file statistics.dat ## every 1ps

run 4000000 ## 1ns

CITE-CITE-CITE-CITE-CITE-CITE-CITE-CITE-CITE-CITE-CITE-CITE-CITE

Your simulation uses code contributions which should be cited:

- GPU package (short-range, long-range and three-body potentials): doi:10.1016/j.cpc.2010.12.021, doi:10.1016/j.cpc.2011.10.012, doi:10.1016/j.cpc.2013.08.002, doi:10.1016/j.commatsci.2014.10.068, doi:10.1016/j.cpc.2016.10.020, doi:10.3233/APC200086

@Article{Brown11,
 author = {W. M. Brown and P. Wang and S. J. Plimpton and A. N. Tharrington},
 title = {Implementing Molecular Dynamics on Hybrid High Performance Computers---Short Range Forces},
 journal = {Comput.\ Phys.\ Commun.},
 year =    2011,
 volume =  182,
 pages =   {898--911},
 doi =     {10.1016/j.cpc.2010.12.021}
}

@Article{Brown12,
 author = {W. M. Brown and A. Kohlmeyer and S. J. Plimpton and A. N. Tharrington},
 title = {Implementing Molecular Dynamics on Hybrid High Performance Computers - Particle-Particle Particle-Mesh},
 journal = {Comput.\ Phys.\ Commun.},
 year =    2012,
 volume =  183,
 doi =     {10.1016/j.cpc.2011.10.012},
 pages =   {449--459}
}

@Article{Brown13,
 author = {W. M. Brown and Y. Masako},
 title = {Implementing Molecular Dynamics on Hybrid High Performance Computers---Three-Body Potentials},
 journal = {Comput.\ Phys.\ Commun.},
 year =    2013,
 volume =  184,
 pages =   {2785--2793},
 doi =     {10.1016/j.cpc.2013.08.002},
}

@Article{Trung15,
 author = {T. D. Nguyen and S. J. Plimpton},
 title = {Accelerating Dissipative Particle Dynamics Simulations for Soft Matter Systems},
 journal = {Comput.\ Mater.\ Sci.},
 year =    2015,
 doi =     {10.1016/j.commatsci.2014.10.068},
 volume =  100,
 pages =   {173--180}
}

@Article{Trung17,
 author = {T. D. Nguyen},
 title = {{GPU}-Accelerated {T}ersoff Potentials for Massively Parallel
    Molecular Dynamics Simulations},
 journal = {Comput.\ Phys.\ Commun.},
 year =    2017,
 doi =     {10.1016/j.cpc.2016.10.020},
 volume =  212,
 pages =   {113--122}
}

@inproceedings{Nikolskiy19,
 author = {V. Nikolskiy and V. Stegailov},
 title = {{GPU} Acceleration of Four-Site Water Models in {LAMMPS}},
 booktitle = {Proceedings of the International Conference on Parallel
    Computing (ParCo 2019), Prague, Czech Republic},
 doi =     {10.3233/APC200086},
 year =    2019
}

CITE-CITE-CITE-CITE-CITE-CITE-CITE-CITE-CITE-CITE-CITE-CITE-CITE

PPPM initialization ...
  using 12-bit tables for long-range coulomb (src/kspace.cpp:342)
  G vector (1/distance) = 0.16213167
  grid = 27 27 27
  stencil order = 5
  estimated absolute RMS force accuracy = 0.038078778
  estimated relative force accuracy = 0.00011467311
  using double precision FFTW3
  3d grid and FFT values/proc = 32768 19683
Generated 1 of 1 mixed pair_coeff terms from arithmetic mixing rule
Per MPI rank memory allocation (min/avg/max) = 10.39 | 10.39 | 10.39 Mbytes
   Step          Temp         Density         Press          KinEng         PotEng         TotEng    
         0   307.41471      0.015531399   -181.39325      762.70438      25145.606      25908.31     
      1000   312.85348      0.015531399    13.007603      776.1981      -19.519209      756.6789     
      2000   312.72242      0.015531399    5.1036105      775.87294     -26.049296      749.82364    
      3000   283.71502      0.015531399    10.466171      703.90479     -30.84613       673.05866    
      4000   308.13929      0.015531399    18.062191      764.50206     -37.934263      726.5678     
      5000   313.34771      0.015531399    9.5917894      777.42431     -41.901703      735.52261    
      6000   299.44406      0.015531399    14.475953      742.92897     -44.095944      698.83303    
      7000   282.81143      0.015531399    7.8836025      701.66296     -46.282976      655.37998    
      8000   303.66746      0.015531399    7.5016164      753.40733     -53.314002      700.09333    
      9000   309.22773      0.015531399    8.2491182      767.20253     -57.388312      709.81422    
     10000   294.12962      0.015531399    7.4841818      729.7437      -57.54519       672.19851    
     11000   299.35537      0.015531399    8.9738322      742.70892     -57.42521       685.28371    
     12000   307.87436      0.015531399    11.273599      763.84477     -52.248121      711.59665    
     13000   299.80295      0.015531399    7.6964005      743.81938     -57.574269      686.24512    
     14000   298.83388      0.015531399    9.4546035      741.41511     -58.457175      682.95793    
     15000   303.0099       0.015531399    10.901656      751.77591     -61.651866      690.12404    
     16000   290.30333      0.015531399    5.2289824      720.25056     -65.221793      655.02876    
     17000   293.50227      0.015531399    9.901967       728.18722     -61.589099      666.59812    
     18000   307.95988      0.015531399    9.6576599      764.05694     -65.659541      698.3974     
     19000   302.63723      0.015531399    8.813801       750.8513      -65.923293      684.92801    
     20000   302.83158      0.015531399    6.6117694      751.33349     -65.412483      685.92101    
     21000   288.66821      0.015531399    6.2528638      716.19378     -67.192167      649.00161    
     22000   300.57942      0.015531399    12.288181      745.74583     -67.951565      677.79426    
     23000   290.89862      0.015531399    6.5150462      721.7275      -69.855405      651.8721     
     24000   294.18131      0.015531399    8.1243702      729.87194     -76.168113      653.70382    
     25000   308.02641      0.015531399    8.7634821      764.22201     -77.646923      686.57509    
     26000   298.65435      0.015531399    8.3003014      740.96967     -77.25695       663.71272    
     27000   302.25424      0.015531399    5.6621744      749.90109     -82.046142      667.85495    
     28000   301.06888      0.015531399    8.3934053      746.96018     -80.135489      666.82469    
     29000   302.76149      0.015531399    10.341992      751.1596      -79.037885      672.12171    
     30000   305.42462      0.015531399    11.005898      757.7669      -85.777906      671.98899    
     31000   295.05053      0.015531399    5.420957       732.02851     -81.313337      650.71517    
     32000   305.58872      0.015531399    4.5456143      758.17405     -83.37282       674.80123    
     33000   306.70515      0.015531399    6.9673004      760.94392     -86.729253      674.21467    
     34000   289.13328      0.015531399    15.14228       717.34763     -87.65628       629.69135    
     35000   290.07297      0.015531399    10.662712      719.67902     -85.693707      633.98532    
     36000   301.86252      0.015531399    7.3513383      748.92924     -86.270308      662.65894    
     37000   305.35308      0.015531399    5.9504073      757.58941     -89.499667      668.08974    
     38000   293.86273      0.015531399    7.223732       729.08153     -90.372348      638.70918    
     39000   305.90885      0.015531399    18.764933      758.9683      -88.72878       670.23952    
     40000   293.56964      0.015531399    7.4738708      728.35437     -86.33012       642.02425    
     41000   307.85706      0.015531399    7.8228229      763.80185     -86.898043      676.90381    
     42000   304.07806      0.015531399    8.3050675      754.42604     -85.26288       669.16316    
     43000   284.88577      0.015531399    13.643614      706.80945     -91.195433      615.61402    
     44000   288.83053      0.015531399    5.3782725      716.59652     -91.704408      624.89211    
     45000   318.39482      0.015531399   -6.2946792      789.94632     -91.11585       698.83047    
     46000   311.8385       0.015531399    6.5630275      773.6799      -87.71151       685.96839    
     47000   297.05557      0.015531399    14.607066      737.00306     -93.057651      643.94541    
     48000   290.37667      0.015531399    7.272157       720.43253     -90.421393      630.01113    
     49000   313.82358      0.015531399    8.5143926      778.60496     -92.715856      685.8891     
     50000   304.99739      0.015531399    7.6750725      756.70693     -91.619292      665.08763    
     51000   283.07786      0.015531399    6.6065097      702.32397     -94.298994      608.02497    
     52000   294.23695      0.015531399    10.324257      730.00998     -94.565961      635.44402    
     53000   314.12994      0.015531399    12.024632      779.36504     -96.435139      682.9299     
     54000   302.88002      0.015531399    5.8968887      751.45369     -93.614257      657.83943    
     55000   283.01212      0.015531399    7.2892706      702.16087     -88.860833      613.30003    
     56000   301.91248      0.015531399    12.767543      749.05317     -89.755099      659.29807    
     57000   308.84923      0.015531399    5.799134       766.26344     -94.968699      671.29474    
     58000   299.48779      0.015531399    7.72418        743.03747     -100.67346      642.36401    
     59000   299.34333      0.015531399    8.3790647      742.67904     -96.781549      645.8975     
     60000   298.40712      0.015531399    6.6555101      740.3563      -98.515312      641.84099    
     61000   297.81834      0.015531399    7.8311453      738.8955      -98.247207      640.6483     
     62000   297.19839      0.015531399    16.380839      737.3574      -99.937164      637.42024    
     63000   286.15949      0.015531399    4.2306275      709.96957     -102.66696      607.30261    
     64000   311.72854      0.015531399    3.4087495      773.40711     -101.90755      671.49956    
     65000   306.72104      0.015531399    10.147148      760.98335     -101.49431      659.48904    
     66000   295.46371      0.015531399    8.1364877      733.0536      -99.619788      633.43381    
     67000   292.04614      0.015531399    8.0521042      724.57452     -105.64271      618.93182    
     68000   309.80945      0.015531399    10.696529      768.64578     -108.71439      659.93139    
     69000   299.90018      0.015531399    5.207568       744.06062     -102.20643      641.85419    
     70000   292.97871      0.015531399    9.8462769      726.88826     -105.0969       621.79135    
     71000   304.19579      0.015531399    8.6417487      754.71815     -106.52841      648.18974    
     72000   296.5276       0.015531399    3.5035994      735.69315     -109.26891      626.42425    
     73000   296.75026      0.015531399    10.077789      736.24557     -105.59243      630.65314    
     74000   314.00479      0.015531399    10.643843      779.05454     -114.55934      664.4952     
     75000   302.12907      0.015531399    3.8343         749.59055     -113.9391       635.65144    
     76000   295.71529      0.015531399    7.9173207      733.67778     -112.8631       620.81468    
     77000   304.2245       0.015531399    10.210958      754.78938     -111.07009      643.71929    
     78000   299.68777      0.015531399    5.0151329      743.53361     -110.45447      633.07914    
     79000   308.77138      0.015531399   -1.3736844      766.0703      -115.11854      650.95177    
     80000   302.11651      0.015531399    7.7887182      749.55939     -110.93902      638.62037    
     81000   286.33309      0.015531399    11.120821      710.4003      -111.07173      599.32857    
     82000   301.68974      0.015531399    9.114865       748.50056     -105.68437      642.81618    
     83000   299.5118       0.015531399    11.477739      743.09703     -106.16569      636.93133    
     84000   292.73749      0.015531399    9.3459719      726.28979     -106.14456      620.14524    
     85000   300.35729      0.015531399    2.4572286      745.19471     -110.53463      634.66008    
     86000   302.38008      0.015531399    2.7412214      750.21332     -111.42205      638.79127    
     87000   303.47648      0.015531399    12.617778      752.9335      -102.85935      650.07415    
     88000   303.14685      0.015531399    0.75672409     752.1157      -109.94656      642.16914    
     89000   297.09942      0.015531399    7.8262858      737.11186     -107.88906      629.2228     
     90000   302.6235       0.015531399    3.916799       750.81725     -100.72391      650.09334    
     91000   299.09972      0.015531399    13.698718      742.07465     -107.25431      634.82034    
     92000   297.76038      0.015531399    6.9545658      738.75171     -107.7614       630.99031    
     93000   293.1722       0.015531399    18.513771      727.3683      -108.94419      618.42411    
     94000   302.52388      0.015531399    1.2481304      750.57008     -107.2736       643.29648    
     95000   296.14338      0.015531399    9.4837171      734.73989     -111.00608      623.73382    
     96000   292.71287      0.015531399    9.18982        726.2287      -110.92948      615.29922    
     97000   300.72903      0.015531399    5.7845688      746.11701     -112.84386      633.27315    
     98000   287.26792      0.015531399    4.2322433      712.71963     -105.60331      607.11632    
     99000   299.65746      0.015531399    6.1964072      743.45842     -112.42615      631.03227    
    100000   305.62738      0.015531399    3.1017874      758.26997     -106.12344      652.14653    
    101000   299.6575       0.015531399    8.2782214      743.45852     -101.29649      642.16204    
    102000   317.21159      0.015531399    19.743173      787.01069     -102.13855      684.87214    
    103000   298.63686      0.015531399    9.3230479      740.92629     -108.77845      632.14784    
    104000   300.56268      0.015531399   -0.0075712242   745.70429     -109.74998      635.95431    
    105000   305.53086      0.015531399    9.2786538      758.03049     -110.27653      647.75396    
    106000   287.47293      0.015531399    10.412206      713.22826     -113.18843      600.03983    
    107000   297.02464      0.015531399    6.2551668      736.92631     -106.78527      630.14104    
    108000   297.48831      0.015531399   -2.9294162      738.07669     -109.34043      628.73626    
    109000   302.70289      0.015531399    7.8019088      751.01422     -105.01952      645.99471    
    110000   289.67995      0.015531399    9.2663674      718.70394     -109.03424      609.6697     
    111000   295.3484       0.015531399    6.881928       732.76753     -113.56941      619.19812    
    112000   310.91361      0.015531399    6.1584085      771.38525     -111.2174       660.16785    
    113000   301.80877      0.015531399    10.461941      748.79588     -107.59571      641.20018    
    114000   289.35234      0.015531399    12.193805      717.89112     -109.40416      608.48696    
    115000   295.23466      0.015531399    7.8312695      732.48533     -110.00424      622.48109    
    116000   299.85293      0.015531399    5.9381377      743.94338     -108.22764      635.71574    
    117000   301.92522      0.015531399    10.892204      749.08479     -108.81404      640.27075    
    118000   276.28219      0.015531399    10.869753      685.46374     -107.80962      577.65411    
    119000   304.46402      0.015531399    2.5739535      755.38364     -106.0678       649.31584    
    120000   304.10695      0.015531399    19.667409      754.49772     -110.75451      643.74321    
    121000   292.08339      0.015531399    10.953028      724.66694     -110.55677      614.11017    
    122000   301.73721      0.015531399   -4.9844501      748.61834     -103.64342      644.97492    
    123000   304.55926      0.015531399   -8.6510624      755.61992     -104.97643      650.64349    
    124000   307.70606      0.015531399    2.3426089      763.42722     -111.57206      651.85516    
    125000   294.42028      0.015531399    14.278367      730.46483     -112.6292       617.83563    
    126000   295.9123       0.015531399   -3.5133859      734.16658     -105.4676       628.69898    
    127000   316.04556      0.015531399    4.5272025      784.11775     -106.60912      677.50863    
    128000   300.43194      0.015531399    11.488248      745.37993     -112.91313      632.4668     
    129000   292.37662      0.015531399    7.5791809      725.39445     -106.6662       618.72825    
    130000   308.79385      0.015531399    0.76010514     766.12605     -104.16888      661.95717    
    131000   293.99142      0.015531399    11.848564      729.40082     -100.1043       629.29652    
    132000   297.35998      0.015531399    9.072086       737.75832     -103.87267      633.88564    
    133000   302.97013      0.015531399    4.3444352      751.67724     -102.69251      648.98472    
    134000   298.69939      0.015531399    9.4391138      741.08143     -108.18255      632.89888    
    135000   296.15057      0.015531399    16.504018      734.75773     -102.04844      632.70929    
    136000   297.23655      0.015531399    6.3675123      737.45207     -111.21366      626.23841    
    137000   296.32805      0.015531399    5.2109688      735.19805     -104.7032       630.49484    
    138000   301.96933      0.015531399    6.1606962      749.19423     -108.10483      641.0894     
    139000   309.98268      0.015531399    16.732538      769.07557     -101.3897       667.68587    
    140000   299.69734      0.015531399    10.169381      743.55737     -105.65077      637.9066     
    141000   287.93732      0.015531399    2.5697348      714.38042     -105.25288      609.12754    
    142000   307.71554      0.015531399    7.2586513      763.45072     -107.93635      655.51438    
    143000   306.8283       0.015531399    13.296033      761.24947     -106.66777      654.5817     
    144000   283.16338      0.015531399    2.0940801      702.53614     -106.7193       595.81684    
    145000   294.5327       0.015531399    4.6228523      730.74374     -107.53761      623.20612    
    146000   297.01141      0.015531399    7.9999493      736.8935      -107.83707      629.05643    
    147000   296.94552      0.015531399    14.875891      736.73003     -105.26252      631.46751    
    148000   294.27323      0.015531399    11.160562      730.1         -107.73485      622.36514    
    149000   308.74983      0.015531399    3.7128991      766.01684     -101.58397      664.43286    
    150000   301.78986      0.015531399    4.3494665      748.74897     -107.49194      641.25703    
    151000   297.23509      0.015531399    7.6256863      737.44846     -103.49837      633.95009    
    152000   305.12772      0.015531399    8.5306911      757.03029     -111.2205       645.80979    
    153000   290.09353      0.015531399    6.0385459      719.73004     -110.06527      609.66477    
    154000   285.48944      0.015531399    5.6255577      708.30718     -103.61115      604.69602    
    155000   311.12548      0.015531399    6.1939385      771.9109      -103.58875      668.32214    
    156000   307.00567      0.015531399    10.753603      761.68954     -104.7806       656.90894    
    157000   284.1608       0.015531399    6.4647942      705.01077     -103.80564      601.20514    
    158000   307.73959      0.015531399    6.5880113      763.51041     -111.81526      651.69515    
    159000   307.35033      0.015531399    9.1466441      762.54464     -109.8416       652.70303    
    160000   305.57887      0.015531399    6.8009348      758.1496      -110.26543      647.88417    
    161000   303.30361      0.015531399    7.8091567      752.50461     -109.24807      643.25654    
    162000   287.23596      0.015531399    8.1485392      712.64032     -108.45772      604.1826     
    163000   316.27736      0.015531399    8.4846714      784.69285     -104.15131      680.54154    
    164000   304.42683      0.015531399    8.4977856      755.29135     -102.54015      652.75119    
    165000   300.08937      0.015531399    8.3712404      744.53001     -106.44481      638.0852     
    166000   308.26875      0.015531399    7.7120303      764.82327     -109.1379       655.68537    
    167000   297.8002       0.015531399    6.852705       738.85052     -104.16709      634.68343    
    168000   290.51376      0.015531399    8.473809       720.77265     -109.58687      611.18578    
    169000   312.13324      0.015531399    7.8258299      774.41118     -103.69508      670.7161     
    170000   307.23506      0.015531399    7.4346287      762.25866     -104.6343       657.62436    
    171000   310.16099      0.015531399   -1.5193114      769.51795     -111.36294      658.15502    
    172000   293.58238      0.015531399    2.7867279      728.38598     -107.94719      620.43878    
    173000   285.249        0.015531399    14.786275      707.71062     -104.37843      603.33219    
    174000   315.89284      0.015531399    9.6166643      783.73884     -109.73407      674.00477    
    175000   304.8694       0.015531399    3.5252319      756.38938     -108.75906      647.63033    
    176000   286.51494      0.015531399    8.4440815      710.85145     -107.43645      603.415      
    177000   313.84207      0.015531399    12.71845       778.65081     -104.0201       674.63071    
    178000   310.50955      0.015531399    7.2912575      770.38275     -106.30408      664.07868    
    179000   293.15685      0.015531399    6.3338793      727.33022     -104.99458      622.33564    
    180000   293.64952      0.015531399    7.6796417      728.55256     -106.02656      622.526      
    181000   304.99704      0.015531399    6.8778875      756.70608     -100.45706      656.24902    
    182000   304.99502      0.015531399    7.7500791      756.70105     -100.9389       655.76216    
    183000   296.27047      0.015531399    6.3380645      735.0552      -96.947368      638.10784    
    184000   293.49686      0.015531399    7.7193552      728.17381     -102.51162      625.6622     
    185000   306.62455      0.015531399    9.3213816      760.74397     -103.93627      656.8077     
    186000   305.1309       0.015531399    9.2263024      757.03818     -103.86569      653.17249    
    187000   308.92244      0.015531399    7.0059512      766.44508     -99.843403      666.60168    
    188000   303.47599      0.015531399    7.0360378      752.93229     -98.448219      654.48407    
    189000   299.64777      0.015531399    9.3198073      743.43438     -108.7024       634.73198    
    190000   315.29424      0.015531399    9.31387        782.25369     -108.13997      674.11372    
    191000   297.28646      0.015531399    8.3711503      737.5759      -101.68773      635.88817    
    192000   286.65792      0.015531399    3.9959274      711.2062      -109.00915      602.19705    
    193000   309.95246      0.015531399    11.45608       769.00059     -111.19503      657.80556    
    194000   295.34582      0.015531399    17.334308      732.76112     -100.95637      631.80474    
    195000   297.98863      0.015531399    15.6859        739.31801     -98.187414      641.13059    
    196000   294.00769      0.015531399    6.4937612      729.44119     -98.509444      630.93175    
    197000   303.24316      0.015531399    5.4418132      752.35464     -90.503409      661.85123    
    198000   317.59302      0.015531399    4.0539607      787.95704     -99.97392       687.98312    
    199000   295.06916      0.015531399    10.30084       732.07473     -98.482808      633.59192    
    200000   285.30213      0.015531399    13.075526      707.84245     -97.108103      610.73435    
    201000   313.76246      0.015531399    4.5522774      778.45332     -95.604893      682.84843    
    202000   311.52141      0.015531399    8.3697657      772.8932      -99.824025      673.06918    
    203000   280.27562      0.015531399    9.2491544      695.37154     -105.28071      590.09083    
    204000   292.12808      0.015531399    6.8215481      724.77783     -97.351436      627.42639    
    205000   297.83034      0.015531399    5.2274703      738.92528     -99.616288      639.30899    
    206000   307.67962      0.015531399    3.5495197      763.36163     -95.115984      668.24564    
    207000   301.41636      0.015531399    8.014129       747.8223      -85.191304      662.63099    
    208000   300.23676      0.015531399    8.0280636      744.89568     -86.154977      658.7407     
    209000   306.94479      0.015531399    10.378835      761.53849     -86.845735      674.69275    
    210000   294.48108      0.015531399    8.288808       730.61568     -82.482655      648.13303    
    211000   296.14709      0.015531399    5.9596686      734.7491      -84.046096      650.703      
    212000   301.20539      0.015531399    7.4126563      747.29888     -84.72079       662.57809    
    213000   295.15107      0.015531399    7.5511489      732.27794     -80.492855      651.78508    
    214000   300.49196      0.015531399    6.4992651      745.52884     -78.954254      666.57459    
    215000   315.68948      0.015531399    11.507125      783.23429     -80.82794       702.40635    
    216000   302.80198      0.015531399    8.0560875      751.26005     -88.819374      662.44068    
    217000   296.75375      0.015531399    5.3282347      736.25423     -85.455006      650.79922    
    218000   301.17782      0.015531399    2.2048386      747.23048     -84.444816      662.78566    
    219000   298.50918      0.015531399    10.48464       740.60951     -84.998727      655.61078    
    220000   298.39248      0.015531399    2.9997133      740.31996     -83.447714      656.87225    
    221000   294.11538      0.015531399    7.8380346      729.70835     -84.530713      645.17764    
    222000   291.50605      0.015531399    9.8065543      723.23454     -82.426692      640.80785    
    223000   305.03604      0.015531399    8.2918101      756.80281     -80.63191       676.1709     
    224000   287.42014      0.015531399    10.269133      713.0973      -83.667858      629.42944    
    225000   287.89275      0.015531399    6.1869238      714.26986     -81.944245      632.32561    
    226000   293.73837      0.015531399    5.0821957      728.773       -82.591571      646.18143    
    227000   302.4688       0.015531399    6.4248671      750.43343     -76.030994      674.40244    
    228000   294.55325      0.015531399    9.1185684      730.79473     -80.568308      650.22643    
    229000   298.85612      0.015531399    8.1585156      741.47028     -77.618845      663.85144    
    230000   292.11076      0.015531399    7.456096       724.73485     -74.198536      650.53631    
    231000   309.77214      0.015531399    7.7324797      768.55322     -83.9207        684.63252    
    232000   295.56646      0.015531399    8.0196868      733.30853     -75.961681      657.34685    
    233000   300.83361      0.015531399    7.7043477      746.37647     -74.90895       671.46752    
    234000   292.19415      0.015531399    7.4841567      724.94173     -76.721771      648.21996    
    235000   282.74435      0.015531399    10.975501      701.49652     -83.719206      617.77732    
    236000   299.7317       0.015531399    7.4747854      743.64262     -79.893541      663.74908    
    237000   309.35467      0.015531399    8.548467       767.51747     -78.459633      689.05783    
    238000   297.23719      0.015531399    7.7392279      737.45366     -74.226451      663.22721    
    239000   307.90583      0.015531399    7.0461603      763.92286     -73.37224       690.55062    
    240000   305.38411      0.015531399    8.4161966      757.66638     -73.458202      684.20818    
    241000   301.71611      0.015531399    7.4233037      748.566       -79.464312      669.10168    
    242000   294.96642      0.015531399    7.5625733      731.81981     -79.176714      652.6431     
    243000   312.1104       0.015531399    10.115911      774.3545      -74.601725      699.75278    
    244000   297.27971      0.015531399    8.013166       737.55915     -69.401653      668.1575     
    245000   298.37412      0.015531399    7.2085761      740.27442     -75.344883      664.92954    
    246000   314.72977      0.015531399    16.832533      780.85324     -81.058837      699.7944     
    247000   298.40967      0.015531399    6.4054972      740.36262     -83.970552      656.39206    
    248000   298.53459      0.015531399    2.0531044      740.67255     -84.065398      656.60716    
    249000   307.84567      0.015531399    7.8368724      763.77359     -84.001107      679.77248    
    250000   309.69448      0.015531399    15.01451       768.36055     -84.969518      683.39103    
    251000   312.16599      0.015531399    3.6991704      774.49243     -78.335298      696.15713    
    252000   297.49436      0.015531399    1.1366624      738.09171     -80.869496      657.22221    
    253000   304.72334      0.015531399    8.8502108      756.02699     -76.814014      679.21298    
    254000   289.39869      0.015531399    15.202         718.00612     -78.330315      639.6758     
    255000   307.37292      0.015531399    1.9402622      762.60068     -84.88985       677.71083    
    256000   300.22685      0.015531399    3.0641508      744.87109     -80.661525      664.20957    
    257000   276.11086      0.015531399    8.2293224      685.03865     -80.63274       604.40592    
    258000   294.76376      0.015531399    10.705799      731.31702     -77.352031      653.96499    
    259000   311.92807      0.015531399    11.668079      773.90214     -76.449696      697.45244    
    260000   297.9641       0.015531399    4.8276978      739.25715     -77.841961      661.41518    
    261000   293.78503      0.015531399    7.4176617      728.88875     -79.218832      649.66992    
    262000   296.14576      0.015531399    8.1429139      734.7458      -76.12071       658.62509    
    263000   309.09718      0.015531399    10.590146      766.87863     -75.791357      691.08727    
    264000   291.13684      0.015531399    5.593545       722.31853     -74.840851      647.47768    
    265000   289.18584      0.015531399    8.4480765      717.47804     -74.643075      642.83496    
    266000   311.00184      0.015531399    11.138502      771.60413     -73.505327      698.09881    
    267000   319.52739      0.015531399    8.9667306      792.75626     -64.573525      728.18273    
    268000   300.12927      0.015531399    8.3349251      744.62899     -69.836723      674.79227    
    269000   284.72429      0.015531399    3.2517336      706.40881     -64.46416       641.94465    
    270000   299.00132      0.015531399    9.5300103      741.83051     -67.866738      673.96377    
    271000   303.22461      0.015531399    10.75976       752.30861     -62.568578      689.74003    
    272000   312.36703      0.015531399    9.5737683      774.99122     -67.597848      707.39337    
    273000   303.92586      0.015531399    6.7814982      754.04843     -70.786568      683.26187    
    274000   307.21572      0.015531399   -0.96737209     762.21067     -66.081871      696.1288     
    275000   288.40439      0.015531399    6.7121727      715.53925     -67.258824      648.28042    
    276000   300.72839      0.015531399    8.7584131      746.11543     -73.351395      672.76404    
    277000   301.81319      0.015531399    8.5008286      748.80683     -76.466934      672.3399     
    278000   307.10593      0.015531399    8.1248461      761.93828     -71.608865      690.32942    
    279000   308.08585      0.015531399    11.806992      764.36949     -72.568548      691.80094    
    280000   297.3983       0.015531399    5.6596142      737.85337     -69.661091      668.19228    
    281000   301.34126      0.015531399    8.5006938      747.63596     -69.422696      678.21327    
    282000   293.5303       0.015531399    8.3234815      728.25676     -67.695074      660.56168    
    283000   310.20731      0.015531399    8.0749633      769.63288     -62.964509      706.66837    
    284000   291.08663      0.015531399    8.5929803      722.19395     -58.483746      663.71021    
    285000   299.94899      0.015531399    8.0119081      744.18171     -62.745707      681.43601    
    286000   310.59691      0.015531399    9.6831708      770.59949     -65.636441      704.96305    
    287000   302.70897      0.015531399    6.5273157      751.02929     -64.570922      686.45837    
    288000   297.19364      0.015531399    6.0039249      737.34562     -63.917494      673.42813    
    289000   304.02971      0.015531399    10.307912      754.30608     -61.321953      692.98413    
    290000   303.5492       0.015531399    6.9588877      753.11393     -62.89651       690.21742    
    291000   298.50393      0.015531399    7.9215726      740.59649     -59.939677      680.65681    
    292000   304.57863      0.015531399    7.8264644      755.66799     -56.023604      699.64438    
    293000   287.8882       0.015531399    9.202462       714.25855     -59.5112        654.74735    
    294000   299.91289      0.015531399    7.5949906      744.09215     -59.677066      684.41508    
    295000   316.30632      0.015531399    10.123084      784.7647      -53.549185      731.21552    
    296000   293.72133      0.015531399    8.1458798      728.73073     -57.843659      670.88707    
    297000   298.65199      0.015531399    3.26519        740.96381     -57.085521      683.87829    
    298000   310.69236      0.015531399    10.6775        770.83631     -60.540949      710.29536    
    299000   306.12192      0.015531399    9.720108       759.49692     -67.258596      692.23832    
    300000   292.43135      0.015531399    5.5494026      725.53023     -65.59955       659.93068    
    301000   293.63733      0.015531399    8.761559       728.52232     -65.998432      662.52389    
    302000   309.13635      0.015531399    8.9366489      766.9758      -61.836085      705.13971    
    303000   294.75138      0.015531399    7.7550063      731.28629     -63.249446      668.03685    
    304000   304.62373      0.015531399    7.465506       755.77988     -58.213328      697.56655    
    305000   304.47846      0.015531399    14.510432      755.41946     -60.609785      694.80967    
    306000   302.29926      0.015531399    8.7237941      750.0128      -52.228676      697.78412    
    307000   308.89913      0.015531399    7.23283        766.38726     -53.569199      712.81806    
    308000   294.02541      0.015531399    7.8858752      729.48516     -53.103829      676.38133    
    309000   297.63878      0.015531399    13.314419      738.45002     -56.625498      681.82452    
    310000   294.14553      0.015531399    11.134089      729.78316     -54.695842      675.08732    
    311000   302.54684      0.015531399    8.2364024      750.62706     -48.430828      702.19623    
    312000   293.0652       0.015531399    8.0083968      727.10283     -50.237729      676.86511    
    313000   312.49371      0.015531399    8.3764299      775.30551     -53.971967      721.33354    
    314000   300.63484      0.015531399    9.5758012      745.88333     -56.741418      689.14191    
    315000   288.34845      0.015531399    12.9132        715.40046     -59.601555      655.7989     
    316000   301.18928      0.015531399    6.9736364      747.2589      -55.263628      691.99527    
    317000   299.83802      0.015531399    5.1147368      743.90638     -58.354896      685.55149    
    318000   296.57389      0.015531399    5.437266       735.80801     -55.309735      680.49827    
    319000   299.9734       0.015531399    10.870744      744.24228     -51.045756      693.19652    
    320000   304.34817      0.015531399    8.922809       755.0962      -51.191221      703.90498    
    321000   294.60528      0.015531399    4.8943423      730.92383     -54.955124      675.96871    
    322000   299.2845       0.015531399    8.2643889      742.53308     -54.384032      688.14905    
    323000   304.63974      0.015531399    7.3403003      755.81959     -62.141574      693.67801    
    324000   299.91376      0.015531399    9.4310729      744.09429     -61.629031      682.46526    
    325000   302.98232      0.015531399    8.2536353      751.70748     -59.996852      691.71063    
    326000   308.01824      0.015531399    10.654292      764.20174     -62.696853      701.50488    
    327000   307.99295      0.015531399    8.7138282      764.139       -58.568313      705.57069    
    328000   295.6141       0.015531399    9.3334234      733.42672     -60.816491      672.61023    
    329000   292.75441      0.015531399    4.476117       726.33176     -58.639179      667.69258    
    330000   306.57144      0.015531399    8.4461138      760.61218     -66.957509      693.65467    
    331000   304.22925      0.015531399    10.040504      754.80115     -66.421789      688.37937    
    332000   298.19077      0.015531399    7.4206377      739.81953     -68.607941      671.21159    
    333000   302.31316      0.015531399    7.5387419      750.04728     -63.521584      686.5257     
    334000   306.03774      0.015531399    8.699261       759.28807     -56.496883      702.79119    
    335000   309.1554       0.015531399    7.8284835      767.02307     -58.453242      708.56983    
    336000   301.70291      0.015531399    8.4681951      748.53324     -55.331696      693.20155    
    337000   293.57647      0.015531399    8.3990193      728.37131     -53.546296      674.82501    
    338000   301.4007       0.015531399    9.9687216      747.78345     -50.378099      697.40535    
    339000   296.25254      0.015531399    7.7207038      735.01072     -55.268587      679.74213    
    340000   304.97993      0.015531399    7.5114117      756.66361     -53.598161      703.06544    
    341000   300.75189      0.015531399    7.8776504      746.17373     -56.439373      689.73435    
    342000   295.37873      0.015531399    9.3950875      732.84276     -56.947141      675.89562    
    343000   311.22165      0.015531399    8.5908193      772.14948     -62.197859      709.95162    
    344000   303.97363      0.015531399    8.4053585      754.16695     -61.963895      692.20305    
    345000   294.95073      0.015531399    7.9034585      731.7809      -56.253781      675.52712    
    346000   286.15373      0.015531399    6.4541129      709.95529     -56.4933        653.46199    
    347000   312.44566      0.015531399    2.6343296      775.18629     -57.173153      718.01314    
    348000   303.88903      0.015531399    11.704364      753.95707     -57.749445      696.20762    
    349000   295.80168      0.015531399    13.300302      733.89212     -57.054507      676.83762    
    350000   304.79504      0.015531399    7.5909815      756.2049      -56.815183      699.38972    
    351000   307.96626      0.015531399    7.5458307      764.07279     -58.595181      705.47761    
    352000   301.66939      0.015531399    7.3681762      748.45008     -53.944836      694.50524    
    353000   288.69328      0.015531399    6.6399113      716.256       -54.857217      661.39878    
    354000   281.51416      0.015531399    9.7619187      698.44439     -54.505157      643.93924    
    355000   304.10547      0.015531399    8.6521978      754.49405     -55.101441      699.39261    
    356000   316.97773      0.015531399    7.6135332      786.4305      -57.516057      728.91444    
    357000   302.6066       0.015531399    6.4468164      750.77533     -59.573524      691.2018     
    358000   294.99187      0.015531399    7.9009791      731.88297     -54.503101      677.37987    
    359000   296.80446      0.015531399    9.0356092      736.38004     -51.513172      684.86687    
    360000   306.282        0.015531399    8.5983726      759.89409     -56.69469       703.1994     
    361000   301.31685      0.015531399    7.5732976      747.5754      -54.698205      692.8772     
    362000   300.06211      0.015531399    8.1734264      744.46237     -51.857455      692.60492    
    363000   290.48197      0.015531399    8.9706757      720.69378     -57.860183      662.8336     
    364000   303.00178      0.015531399    9.8045055      751.75577     -51.841047      699.91473    
    365000   294.29598      0.015531399    8.5480033      730.15644     -57.105797      673.05065    
    366000   297.6554       0.015531399    6.4843986      738.49126     -52.544081      685.94718    
    367000   308.31396      0.015531399    2.7048446      764.93543     -53.850099      711.08533    
    368000   300.51133      0.015531399    9.2056531      745.57688     -53.705613      691.87127    
    369000   301.20641      0.015531399    13.183713      747.3014      -50.689341      696.61206    
    370000   296.39529      0.015531399    4.4858015      735.36488     -46.160843      689.20404    
    371000   300.69278      0.015531399    9.5483837      746.02708     -51.818995      694.20808    
    372000   295.40699      0.015531399    9.4165406      732.91289     -46.154022      686.75886    
    373000   292.8601       0.015531399    4.4433182      726.59398     -45.377458      681.21653    
    374000   303.30715      0.015531399    6.8763021      752.51339     -46.169912      706.34348    
    375000   301.82604      0.015531399    11.120476      748.83872     -50.604447      698.23427    
    376000   295.14411      0.015531399    8.1819663      732.26067     -52.277018      679.98365    
    377000   308.23231      0.015531399    7.9076586      764.73286     -50.905521      713.82734    
    378000   302.57178      0.015531399    9.2634328      750.68892     -46.201347      704.48758    
    379000   300.63797      0.015531399    8.3429087      745.8911      -46.96221       698.92889    
    380000   291.3933       0.015531399    7.5083754      722.95482     -45.294019      677.6608     
    381000   299.04043      0.015531399    8.3661472      741.92755     -46.23761       695.68994    
    382000   306.51015      0.015531399    5.9990275      760.46012     -51.170488      709.28963    
    383000   298.86484      0.015531399    8.5202582      741.49191     -46.80425       694.68766    
    384000   305.50614      0.015531399    7.4840541      757.96915     -44.637492      713.33166    
    385000   307.82615      0.015531399    8.5282449      763.72516     -47.076536      716.64862    
    386000   292.24472      0.015531399    8.6035355      725.0672      -43.120238      681.94696    
    387000   291.2587       0.015531399    7.945766       722.62087     -48.179049      674.44182    
    388000   302.03535      0.015531399    8.7043008      749.35804     -44.961588      704.39645    
    389000   303.77524      0.015531399    8.1248031      753.67475     -45.813011      707.86174    
    390000   296.88207      0.015531399    11.652541      736.57261     -47.356129      689.21648    
    391000   301.02052      0.015531399    11.038423      746.84022     -51.005803      695.83442    
    392000   302.04273      0.015531399    3.5617715      749.37635     -47.794007      701.58234    
    393000   300.53518      0.015531399    5.9999942      745.63606     -42.369535      703.26653    
    394000   292.87643      0.015531399    6.3152543      726.63449     -41.618226      685.01626    
    395000   301.71019      0.015531399    20.01506       748.55129     -41.25713       707.29416    
    396000   302.47045      0.015531399    15.577413      750.43753     -42.698035      707.7395     
    397000   300.63179      0.015531399    12.80649       745.87576     -42.945966      702.92979    
    398000   311.4547       0.015531399    4.9343068      772.72771     -44.72082       728.00689    
    399000   297.81937      0.015531399    3.5339121      738.89808     -45.326265      693.57181    
    400000   294.63342      0.015531399    9.8518748      730.99363     -44.763034      686.23059    
    401000   311.94297      0.015531399    13.597428      773.93912     -48.521044      725.41807    
    402000   314.56558      0.015531399    3.8371283      780.44587     -39.595623      740.85024    
    403000   286.0887       0.015531399    7.3457317      709.79396     -42.40518       667.38878    
    404000   295.78213      0.015531399    8.3985068      733.84362     -45.762493      688.08113    
    405000   324.52113      0.015531399    12.597379      805.14588     -43.989451      761.15643    
    406000   299.77598      0.015531399    5.8076757      743.75247     -48.859178      694.8933     
    407000   296.73834      0.015531399    7.7146084      736.21601     -46.088713      690.1273     
    408000   300.27918      0.015531399    7.4506229      745.00091     -43.923131      701.07778    
    409000   295.74138      0.015531399    7.3382974      733.74252     -40.829419      692.9131     
    410000   298.17169      0.015531399    7.704106       739.77218     -45.346656      694.42552    
    411000   307.76728      0.015531399    7.5659441      763.57909     -47.236015      716.34308    
    412000   291.73403      0.015531399    7.2686834      723.80018     -48.175579      675.6246     
    413000   313.154        0.015531399    13.519253      776.9437      -46.779647      730.16405    
    414000   291.12929      0.015531399    3.7552637      722.2998      -47.595093      674.70471    
    415000   293.85538      0.015531399    7.8356498      729.06331     -51.017649      678.04566    
    416000   304.9221       0.015531399    9.8684996      756.52014     -50.284876      706.23526    
    417000   301.38309      0.015531399    4.9189242      747.73976     -49.949003      697.79076    
    418000   290.06807      0.015531399    7.5088604      719.66689     -53.984736      665.68215    
    419000   307.18701      0.015531399    7.8451957      762.13945     -54.417198      707.72225    
    420000   309.12198      0.015531399    7.5830168      766.94016     -52.133522      714.80664    
    421000   288.51628      0.015531399    7.2148827      715.81684     -50.670018      665.14682    
    422000   291.24218      0.015531399    8.2467676      722.57988     -50.305349      672.27453    
    423000   288.84492      0.015531399    9.578504       716.6322      -47.233231      669.39897    
    424000   307.22887      0.015531399    12.754843      762.24329     -41.638938      720.60436    
    425000   295.7523       0.015531399    3.6843585      733.76961     -40.69283       693.07678    
    426000   298.3908       0.015531399    13.582544      740.3158      -37.73047       702.58533    
    427000   301.33602      0.015531399    14.352876      747.62297     -40.76422       706.85875    
    428000   313.3478       0.015531399    7.1527266      777.42453     -44.580228      732.84431    
    429000   293.81588      0.015531399    7.9948897      728.96531     -43.708925      685.25638    
    430000   298.59906      0.015531399    9.0331798      740.83251     -46.101905      694.7306     
    431000   312.40164      0.015531399    13.959172      775.07707     -46.424419      728.65265    
    432000   327.27026      0.015531399    5.5252796      811.96653     -40.734601      771.23193    
    433000   297.11304      0.015531399    7.7159453      737.14565     -39.330949      697.8147     
    434000   298.79802      0.015531399    13.801358      741.32613     -39.142756      702.18337    
    435000   306.8404       0.015531399    9.1124559      761.27948     -41.453493      719.82599    
    436000   318.48288      0.015531399    0.88870167     790.16481     -47.079037      743.08577    
    437000   291.98767      0.015531399    7.2914008      724.42945     -52.225782      672.20367    
    438000   289.41487      0.015531399    16.198732      718.04628     -47.611121      670.43516    
    439000   296.75494      0.015531399    4.7690681      736.25719     -41.801901      694.45529    
    440000   298.31856      0.015531399    9.1172671      740.13656     -44.840892      695.29567    
    441000   318.30009      0.015531399    11.954209      789.7113      -44.250758      745.46055    
    442000   293.88102      0.015531399    3.8882479      729.1269      -44.764934      684.36196    
    443000   289.54889      0.015531399    9.1431505      718.37877     -37.046196      681.33258    
    444000   306.28142      0.015531399    9.0152376      759.89265     -38.984753      720.9079     
    445000   296.16498      0.015531399    5.3824711      734.79347     -38.522821      696.27065    
    446000   289.5085       0.015531399    7.8855018      718.27858     -37.887026      680.39155    
    447000   297.46984      0.015531399    11.496772      738.03087     -39.201791      698.82908    
    448000   306.2783       0.015531399    10.742646      759.8849      -37.994905      721.88999    
    449000   298.91295      0.015531399    7.6842018      741.61127     -38.600435      703.01083    
    450000   298.70749      0.015531399    4.0788932      741.10152     -38.696448      702.40508    
    451000   286.47917      0.015531399    16.050924      710.76271     -33.150204      677.6125     
    452000   308.96682      0.015531399    9.4823202      766.55521     -29.388319      737.16689    
    453000   306.84301      0.015531399    3.4818073      761.28596     -32.546906      728.73905    
    454000   298.51456      0.015531399    8.8351245      740.62285     -33.956607      706.66624    
    455000   299.01482      0.015531399    9.8718641      741.86401     -35.628002      706.236      
    456000   317.76021      0.015531399    7.9281722      788.37184     -30.296546      758.07529    
    457000   293.96062      0.015531399    7.4354562      729.3244      -35.183495      694.14091    
    458000   294.57339      0.015531399    10.324427      730.8447      -35.699892      695.14481    
    459000   305.49632      0.015531399    7.5803209      757.94479     -34.050014      723.89478    
    460000   298.45876      0.015531399    7.787172       740.4844      -36.016697      704.4677     
    461000   289.81499      0.015531399    10.110443      719.03897     -33.670594      685.36838    
    462000   304.32528      0.015531399    9.9864096      755.03942     -35.521666      719.51775    
    463000   311.49681      0.015531399    9.0684103      772.83218     -38.264932      734.56725    
    464000   300.60955      0.015531399    8.554819       745.82057     -36.614867      709.2057     
    465000   294.29497      0.015531399    8.4305876      730.15394     -31.650581      698.50336    
    466000   289.31958      0.015531399    8.8140125      717.80986     -26.445176      691.36468    
    467000   287.66511      0.015531399    9.1029481      713.70507     -20.488536      693.21653    
    468000   307.20331      0.015531399    11.857601      762.17989     -25.32612       736.85377    
    469000   299.94464      0.015531399    13.870207      744.17092     -22.455941      721.71498    
    470000   286.38214      0.015531399    6.5011594      710.52197     -28.066139      682.45583    
    471000   295.49616      0.015531399    6.431793       733.13412     -24.62966       708.50446    
    472000   306.50867      0.015531399    8.4651331      760.45646     -30.59775       729.85871    
    473000   307.71684      0.015531399    9.5111951      763.45396     -32.041009      731.41295    
    474000   293.54808      0.015531399    7.9068615      728.30088     -29.579926      698.72095    
    475000   308.78037      0.015531399    7.3845441      766.0926      -31.902077      734.19052    
    476000   296.13019      0.015531399    10.661224      734.70716     -26.981562      707.7256     
    477000   303.95279      0.015531399    8.7032013      754.11526     -26.402617      727.71264    
    478000   310.42201      0.015531399   -0.098239414    770.16556     -30.34141       739.82415    
    479000   301.66006      0.015531399    10.812326      748.42692     -29.308931      719.11799    
    480000   273.11318      0.015531399    4.1847807      677.60133     -31.110711      646.49062    
    481000   302.47493      0.015531399    4.5699096      750.44864     -30.921146      719.5275     
    482000   305.76938      0.015531399    7.9891017      758.62226     -28.485865      730.1364     
    483000   295.76798      0.015531399    9.8052937      733.80851     -30.168594      703.63991    
    484000   297.84746      0.015531399    5.5856554      738.96776     -31.12833       707.83943    
    485000   305.46216      0.015531399    5.7046788      757.86003     -31.201248      726.65879    
    486000   311.96712      0.015531399    14.858183      773.99903     -28.178318      745.82072    
    487000   296.89779      0.015531399    10.207724      736.6116      -28.691965      707.91964    
    488000   310.04575      0.015531399    3.6135845      769.23205     -26.656748      742.5753     
    489000   310.16532      0.015531399    13.656951      769.5287      -22.253674      747.27502    
    490000   295.02999      0.015531399    9.725788       731.97753     -23.557342      708.42019    
    491000   284.32779      0.015531399    5.7050708      705.42508     -26.099639      679.32544    
    492000   314.19929      0.015531399    8.963007       779.5371      -29.891639      749.64546    
    493000   303.95277      0.015531399    7.1619484      754.11519     -30.706674      723.40852    
    494000   293.20221      0.015531399    7.5648978      727.44277     -33.259141      694.18363    
    495000   297.42204      0.015531399    8.6541603      737.91229     -27.0728        710.83949    
    496000   301.70587      0.015531399    9.6612105      748.54058     -26.273009      722.26757    
    497000   291.15092      0.015531399    9.3816275      722.35345     -23.599196      698.75425    
    498000   295.3111       0.015531399    1.7016826      732.67498     -33.779102      698.89588    
    499000   293.5577       0.015531399    11.391029      728.32476     -32.158658      696.1661     
    500000   293.011        0.015531399    13.617792      726.96836     -31.988152      694.98021    
    501000   306.90161      0.015531399    11.537473      761.43135     -26.278296      735.15305    
    502000   311.57421      0.015531399    5.1529311      773.02421     -24.190562      748.83365    
    503000   294.67548      0.015531399    2.400319       731.09798     -22.336337      708.76164    
    504000   290.4119       0.015531399    6.728074       720.51992     -21.483085      699.03684    
    505000   297.52133      0.015531399    12.304583      738.15863     -18.553748      719.60488    
    506000   315.11344      0.015531399    7.2735666      781.80514     -20.812225      760.99291    
    507000   280.10737      0.015531399    6.8559283      694.95411     -22.910642      672.04347    
    508000   294.56901      0.015531399    10.427496      730.83384     -22.273213      708.56063    
    509000   313.34502      0.015531399    11.209747      777.41763     -17.889675      759.52796    
    510000   306.38799      0.015531399    7.8282144      760.15706     -19.673209      740.48385    
    511000   290.56254      0.015531399    9.7655001      720.89366     -24.427656      696.46601    
    512000   296.82917      0.015531399    6.0235811      736.44136     -23.73376       712.70759    
    513000   308.32179      0.015531399    8.0807568      764.95486     -20.552241      744.40262    
    514000   291.29753      0.015531399    9.060729       722.71721     -24.52023       698.19698    
    515000   295.26847      0.015531399    8.6868651      732.56921     -24.962647      707.60656    
    516000   304.22136      0.015531399   -3.8032382      754.78159     -22.970129      731.81146    
    517000   311.03658      0.015531399    10.093044      771.69032     -26.3246        745.36572    
    518000   297.45873      0.015531399    12.382956      738.00331     -24.933177      713.07013    
    519000   285.21261      0.015531399    4.6956634      707.62034     -23.686372      683.93397    
    520000   308.4609       0.015531399    5.2703351      765.3         -25.562541      739.73746    
    521000   322.15842      0.015531399    9.8262854      799.28393     -20.84556       778.43837    
    522000   282.29675      0.015531399    11.13468       700.38603     -19.71376       680.67227    
    523000   291.19468      0.015531399    6.8868553      722.46204     -22.813417      699.64862    
    524000   300.38515      0.015531399    7.4188315      745.26385     -22.074402      723.18944    
    525000   306.95737      0.015531399    8.9645003      761.5697      -21.762299      739.8074     
    526000   299.68886      0.015531399    7.0195024      743.53631     -17.928316      725.608      
    527000   295.07749      0.015531399    9.3804725      732.09538     -23.247786      708.84759    
    528000   291.85009      0.015531399    12.101536      724.08813     -22.876232      701.2119     
    529000   305.11349      0.015531399    9.4048293      756.99499     -27.885409      729.10958    
    530000   308.10158      0.015531399    10.309075      764.40851     -28.434513      735.974      
    531000   284.95716      0.015531399    9.5687028      706.98657     -25.835776      681.1508     
    532000   287.3662       0.015531399    5.3040538      712.96346     -24.057796      688.90567    
    533000   310.41583      0.015531399    9.3676983      770.15024     -20.396838      749.7534     
    534000   295.99645      0.015531399    8.1105122      734.37536     -22.709209      711.66615    
    535000   285.00598      0.015531399    6.1455921      707.10769     -22.902363      684.20533    
    536000   316.23839      0.015531399    11.362505      784.59616     -22.317905      762.27826    
    537000   303.70221      0.015531399    10.414971      753.49355     -24.133771      729.35978    
    538000   290.98626      0.015531399    3.9350134      721.94493     -29.489406      692.45553    
    539000   303.40199      0.015531399    7.8941902      752.74871     -26.322762      726.42595    
    540000   309.40449      0.015531399    14.919431      767.64107     -33.699134      733.94194    
    541000   290.91221      0.015531399    11.354559      721.76121     -30.025754      691.73546    
    542000   296.28211      0.015531399    3.5299198      735.08408     -28.66877       706.41531    
    543000   301.84739      0.015531399    19.789102      748.89169     -24.728091      724.1636     
    544000   312.58311      0.015531399    16.258145      775.52731     -26.308016      749.2193     
    545000   288.88509      0.015531399    8.087642       716.73187     -29.206479      687.52539    
    546000   290.63779      0.015531399    11.305606      721.08037     -30.403367      690.677      
    547000   290.80151      0.015531399    2.9266729      721.48655     -26.920603      694.56595    
    548000   312.41233      0.015531399    14.319753      775.10359     -25.877409      749.22618    
    549000   309.51775      0.015531399    26.126849      767.92206     -26.386369      741.53569    
    550000   283.77318      0.015531399    12.876702      704.04908     -29.055718      674.99336    
    551000   297.19727      0.015531399    4.7079255      737.35462     -24.768843      712.58578    
    552000   310.66278      0.015531399    8.323905       770.76291     -20.306582      750.45633    
    553000   306.56052      0.015531399    9.5158637      760.5851      -23.16059       737.42451    
    554000   281.44417      0.015531399    10.122969      698.27074     -24.191442      674.07929    
    555000   298.68171      0.015531399    5.4565618      741.03756     -25.554677      715.48289    
    556000   290.19393      0.015531399    1.0878206      719.97914     -23.748625      696.23052    
    557000   308.97177      0.015531399    6.9113725      766.56747     -23.045398      743.52207    
    558000   301.52262      0.015531399    9.0851128      748.08593     -24.056201      724.02973    
    559000   297.54854      0.015531399    7.2204887      738.22613     -27.531987      710.69415    
    560000   298.90778      0.015531399    9.5858395      741.59844     -23.291713      718.30672    
    561000   303.8747       0.015531399    6.9374427      753.92151     -27.175575      726.74593    
    562000   309.61102      0.015531399    8.6414757      768.15347     -28.827832      739.32563    
    563000   288.76155      0.015531399    8.9547759      716.42537     -30.215555      686.20981    
    564000   307.33526      0.015531399    8.9652821      762.50726     -24.570824      737.93643    
    565000   303.52536      0.015531399    7.9203625      753.05479     -25.910081      727.14471    
    566000   296.2117       0.015531399    8.3149931      734.9094      -26.775128      708.13428    
    567000   291.73348      0.015531399    12.009654      723.7988      -21.986536      701.81226    
    568000   305.02618      0.015531399    6.012454       756.77836     -26.055983      730.72238    
    569000   305.61865      0.015531399    6.95524        758.2483      -26.381311      731.86699    
    570000   296.17215      0.015531399    15.372927      734.81127     -24.461061      710.35021    
    571000   296.98468      0.015531399    11.92891       736.82719     -28.057241      708.76995    
    572000   314.46399      0.015531399    0.58325176     780.19384     -26.769493      753.42434    
    573000   306.81991      0.015531399    9.1956168      761.22866     -29.11319       732.11547    
    574000   305.81016      0.015531399    10.548541      758.72345     -32.267176      726.45627    
    575000   307.54621      0.015531399    8.6079302      763.03063     -33.435079      729.59555    
    576000   294.93053      0.015531399    4.9610729      731.73077     -32.481731      699.24904    
    577000   296.11258      0.015531399    7.1991901      734.66348     -28.694531      705.96895    
    578000   321.50314      0.015531399    11.818678      797.65816     -26.350067      771.3081     
    579000   297.72746      0.015531399    9.1498063      738.67003     -29.622124      709.0479     
    580000   294.32823      0.015531399    8.1156718      730.23645     -30.173099      700.06335    
    581000   306.43571      0.015531399    12.577205      760.27545     -31.003728      729.27172    
    582000   309.72218      0.015531399    5.7413045      768.42926     -27.062175      741.36709    
    583000   295.70463      0.015531399    0.71205663     733.65134     -23.190952      710.46039    
    584000   303.79056      0.015531399    10.565729      753.71276     -27.094263      726.61849    
    585000   296.35606      0.015531399    11.557433      735.26755     -28.850601      706.41695    
    586000   306.20983      0.015531399    6.8234554      759.71504     -29.454171      730.26087    
    587000   287.50328      0.015531399    4.2574748      713.30356     -29.870006      683.43355    
    588000   305.84691      0.015531399    9.3343719      758.8146      -26.944507      731.8701     
    589000   299.42287      0.015531399    7.945647       742.87639     -31.435617      711.44077    
    590000   290.73378      0.015531399    5.1400637      721.31852     -27.90519       693.41333    
    591000   303.96906      0.015531399    12.2503        754.15562     -30.894474      723.26115    
    592000   312.81655      0.015531399    8.325377       776.10649     -25.4578        750.64869    
    593000   295.381        0.015531399    4.0576994      732.84841     -29.754871      703.09354    
    594000   300.59477      0.015531399    6.8441829      745.78391     -35.297612      710.48629    
    595000   298.27248      0.015531399    10.501175      740.02224     -31.306768      708.71548    
    596000   296.79557      0.015531399    13.900107      736.35798     -29.286915      707.07107    
    597000   300.67427      0.015531399    6.142721       745.98116     -26.350623      719.63053    
    598000   309.10226      0.015531399    3.8116035      766.89124     -24.255286      742.63595    
    599000   289.62754      0.015531399    12.329724      718.5739      -25.440258      693.13364    
    600000   288.94715      0.015531399    12.530405      716.88583     -29.034918      687.85091    
    601000   303.38712      0.015531399    9.3829647      752.71181     -28.403459      724.30835    
    602000   309.83213      0.015531399    7.6870781      768.70206     -33.879024      734.82304    
    603000   292.10166      0.015531399    5.8876568      724.71226     -30.272045      694.44022    
    604000   285.83154      0.015531399    6.2420216      709.15593     -29.899633      679.25629    
    605000   305.64448      0.015531399    14.58726       758.31239     -27.98653       730.32586    
    606000   307.49625      0.015531399    7.7443213      762.90666     -31.769391      731.13727    
    607000   298.21727      0.015531399    8.4235498      739.88526     -32.270564      707.6147     
    608000   284.4172       0.015531399    7.2299822      705.64692     -34.373713      671.27321    
    609000   298.45414      0.015531399    7.5412873      740.47296     -38.798291      701.67467    
    610000   318.22749      0.015531399    7.9547483      789.53118     -30.642863      758.88832    
    611000   296.09433      0.015531399    9.2073269      734.61818     -32.206193      702.41199    
    612000   295.29086      0.015531399    8.1577749      732.62475     -31.365816      701.25894    
    613000   302.57656      0.015531399    7.961965       750.70079     -28.573919      722.12687    
    614000   314.04834      0.015531399    9.9375785      779.16259     -29.086339      750.07625    
    615000   307.33585      0.015531399    8.9879341      762.50872     -25.17869       737.33003    
    616000   294.39547      0.015531399    6.4508725      730.40328     -29.309474      701.0938     
    617000   287.00837      0.015531399    7.1834056      712.07568     -28.754874      683.3208     
    618000   309.17094      0.015531399    8.3558301      767.06163     -21.98436       745.07727    
    619000   291.58452      0.015531399    8.4931575      723.42922     -25.013099      698.41612    
    620000   291.77779      0.015531399    7.7271853      723.90874     -28.285911      695.62283    
    621000   311.38298      0.015531399    6.5399043      772.54975     -23.694174      748.85557    
    622000   308.12796      0.015531399    9.4816834      764.47396     -28.200034      736.27392    
    623000   288.4565       0.015531399    10.467083      715.66853     -31.074656      684.59387    
    624000   295.48984      0.015531399    7.0569014      733.11845     -29.859093      703.25936    
    625000   313.89043      0.015531399    6.2774374      778.77081     -29.018872      749.75194    
    626000   315.76965      0.015531399    9.5256118      783.43321     -30.233698      753.19951    
    627000   279.88938      0.015531399    6.9236435      694.41327     -25.006447      669.40683    
    628000   296.55716      0.015531399    6.6760968      735.76648     -27.430778      708.33571    
    629000   306.48767      0.015531399    7.4071598      760.40436     -22.452458      737.95191    
    630000   296.36704      0.015531399    13.49703       735.2948      -22.060561      713.23424    
    631000   295.67307      0.015531399    13.77399       733.57304     -23.862389      709.71065    
    632000   308.5482       0.015531399    6.3900607      765.51658     -23.421251      742.09533    
    633000   318.76818      0.015531399    7.2549621      790.87265     -23.611451      767.2612     
    634000   299.12542      0.015531399    12.481062      742.1384      -28.983786      713.15461    
    635000   297.41295      0.015531399    12.66907       737.88972     -27.438068      710.45165    
    636000   300.55889      0.015531399    0.92468358     745.69488     -28.700782      716.9941     
    637000   299.59223      0.015531399    10.995714      743.29657     -28.484567      714.812      
    638000   281.91599      0.015531399    9.3521898      699.44133     -30.225323      669.21601    
    639000   305.54125      0.015531399    7.2707817      758.05627     -26.86177       731.1945     
    640000   299.2536       0.015531399    5.4093035      742.45644     -30.497531      711.95891    
    641000   307.64915      0.015531399    9.9690204      763.28603     -30.952672      732.33336    
    642000   286.02041      0.015531399    9.6844843      709.62452     -26.512069      683.11245    
    643000   301.02402      0.015531399    6.7009474      746.8489      -26.957021      719.89188    
    644000   314.34969      0.015531399    7.1041179      779.91025     -28.2415        751.66875    
    645000   303.36628      0.015531399    11.934842      752.66009     -28.503392      724.1567     
    646000   293.7514       0.015531399    10.39924       728.80532     -30.26909       698.53623    
    647000   286.9725       0.015531399    6.2673997      711.98668     -37.597696      674.38899    
    648000   307.67868      0.015531399    8.1914113      763.35929     -32.762663      730.59663    
    649000   312.83105      0.015531399    12.911766      776.14246     -33.094958      743.0475     
    650000   290.84398      0.015531399    8.4616754      721.59194     -30.812471      690.77947    
    651000   294.11857      0.015531399    6.1273725      729.71629     -29.920678      699.79561    
    652000   305.99513      0.015531399    7.4421281      759.18235     -29.269014      729.91333    
    653000   302.93606      0.015531399    8.1957288      751.59272     -32.164856      719.42786    
    654000   301.60147      0.015531399    9.897136       748.28157     -30.131874      718.14969    
    655000   304.60517      0.015531399    10.64087       755.73382     -28.089878      727.64394    
    656000   296.39901      0.015531399    2.4667711      735.37412     -32.171109      703.20301    
    657000   291.82072      0.015531399    6.782269       724.01525     -25.369633      698.64561    
    658000   303.89457      0.015531399    15.277817      753.9708      -29.959594      724.0112     
    659000   301.35023      0.015531399    8.6855272      747.65822     -25.899889      721.75833    
    660000   299.42105      0.015531399    8.2168511      742.87189     -22.84065       720.03124    
    661000   306.05867      0.015531399    4.7707424      759.34        -27.664568      731.67543    
    662000   294.20731      0.015531399    10.465998      729.93646     -22.11068       707.82578    
    663000   289.71107      0.015531399    6.7123697      718.78116     -23.966076      694.81509    
    664000   301.18158      0.015531399    7.2882002      747.23981     -22.428113      724.81169    
    665000   304.12505      0.015531399    11.014103      754.54262     -26.926288      727.61633    
    666000   297.72189      0.015531399    8.7528237      738.65621     -30.552924      708.10329    
    667000   298.90079      0.015531399    8.4313136      741.58109     -28.199203      713.38189    
    668000   311.85675      0.015531399    7.8680001      773.72518     -28.555206      745.16998    
    669000   305.56918      0.015531399    8.6382238      758.12557     -28.000565      730.12501    
    670000   290.89095      0.015531399    7.6659518      721.70848     -27.817409      693.89107    
    671000   291.08538      0.015531399    10.529519      722.19086     -29.242161      692.9487     
    672000   308.43715      0.015531399    8.7072739      765.24108     -29.591005      735.65007    
    673000   300.61973      0.015531399    8.2533033      745.84583     -29.282956      716.56288    
    674000   286.20595      0.015531399    6.2141516      710.08486     -30.576069      679.50879    
    675000   287.39204      0.015531399    8.8882317      713.02757     -32.534483      680.49309    
    676000   299.95028      0.015531399    8.7030428      744.18492     -31.879149      712.30577    
    677000   306.11403      0.015531399    8.8718621      759.47735     -31.809078      727.66827    
    678000   285.85224      0.015531399    6.5766124      709.20728     -28.168082      681.0392     
    679000   297.99454      0.015531399    9.6646942      739.33266     -29.192158      710.1405     
    680000   314.21947      0.015531399    11.643892      779.58716     -29.55481       750.03235    
    681000   312.49734      0.015531399    8.0716009      775.3145      -27.346716      747.96779    
    682000   302.14771      0.015531399    8.4771931      749.63679     -27.642616      721.99418    
    683000   297.7973       0.015531399    7.4612015      738.84332     -30.366808      708.47651    
    684000   295.98538      0.015531399    8.3745383      734.34789     -30.306079      704.04181    
    685000   306.09543      0.015531399    7.3500223      759.43121     -33.235106      726.1961     
    686000   307.94107      0.015531399    6.4103037      764.01029     -31.527552      732.48274    
    687000   285.9604       0.015531399    7.3846771      709.47564     -31.168936      678.30671    
    688000   298.48097      0.015531399    12.9143        740.53952     -29.779707      710.75981    
    689000   317.9976       0.015531399    7.6718803      788.96081     -27.707483      761.25333    
    690000   293.30206      0.015531399    4.5529474      727.6905      -27.946         699.7445     
    691000   296.9799       0.015531399    8.4300178      736.81531     -28.28198       708.53333    
    692000   307.09526      0.015531399    9.5418339      761.9118      -27.506699      734.4051     
    693000   297.59384      0.015531399    8.5173072      738.33852     -24.756928      713.58159    
    694000   303.08079      0.015531399    6.5137505      751.95179     -27.610591      724.3412     
    695000   298.87408      0.015531399    8.1930375      741.51483     -25.995144      715.51969    
    696000   295.14521      0.015531399    10.858257      732.26341     -25.91028       706.35313    
    697000   298.92927      0.015531399    9.111929       741.65177     -25.511758      716.14001    
    698000   299.85836      0.015531399    8.3864976      743.95686     -27.661925      716.29493    
    699000   299.18733      0.015531399    5.9365376      742.29201     -28.121661      714.17035    
    700000   296.78341      0.015531399    9.6324302      736.32782     -25.601352      710.72646    
    701000   314.07163      0.015531399    10.187113      779.22038     -26.839868      752.38051    
    702000   307.51638      0.015531399    7.589497       762.95662     -25.668942      737.28768    
    703000   288.94351      0.015531399    6.9780827      716.87681     -32.217134      684.65967    
    704000   303.40125      0.015531399    10.383928      752.74686     -31.806271      720.94059    
    705000   321.54165      0.015531399    13.837439      797.75369     -25.415044      772.33864    
    706000   311.83254      0.015531399    6.7102753      773.66512     -26.850995      746.81413    
    707000   296.25425      0.015531399    6.9913153      735.01496     -30.059441      704.95552    
    708000   294.78029      0.015531399    11.78632       731.35804     -27.485608      703.87243    
    709000   310.00697      0.015531399    14.132869      769.13584     -30.724196      738.41164    
    710000   319.22294      0.015531399    10.590694      792.0009      -30.028166      761.97274    
    711000   286.43473      0.015531399    5.6178976      710.65245     -28.234433      682.41802    
    712000   299.67922      0.015531399    12.448331      743.5124      -28.569692      714.94271    
    713000   308.43706      0.015531399   -4.5877991      765.24085     -28.649859      736.591      
    714000   303.65414      0.015531399    8.4833013      753.3743      -30.665713      722.70859    
    715000   281.58822      0.015531399    9.9712245      698.62813     -26.162725      672.4654     
    716000   301.97857      0.015531399    16.472032      749.21716     -26.99469       722.22247    
    717000   322.44478      0.015531399   -2.4459584      799.99439     -22.628576      777.36582    
    718000   297.41225      0.015531399    6.6855929      737.88799     -20.191443      717.69654    
    719000   293.54037      0.015531399    9.065          728.28174     -22.227971      706.05377    
    720000   300.85061      0.015531399    22.981833      746.41865     -26.658584      719.76006    
    721000   311.48694      0.015531399    6.0841764      772.80768     -29.491043      743.31664    
    722000   290.60206      0.015531399   -1.1533486      720.99172     -23.176347      697.81537    
    723000   291.96395      0.015531399    11.518947      724.3706      -29.06616       695.30444    
    724000   308.6078       0.015531399    6.6613901      765.66445     -26.298401      739.36605    
[...]
   3823000   298.04956      0.015531399    10.918291      739.46918     -32.716692      706.75249    
   3824000   315.20946      0.015531399    8.9340126      782.04335     -31.421496      750.62186    
   3825000   299.97658      0.015531399    7.4036014      744.25016     -21.915708      722.33445    
   3826000   300.98167      0.015531399    7.396986       746.74382     -29.04138       717.70244    
   3827000   287.83157      0.015531399    9.2901123      714.11806     -31.547521      682.57054    
   3828000   294.27792      0.015531399    10.184589      730.11162     -30.820155      699.29147    
   3829000   301.00937      0.015531399    8.3596475      746.81256     -29.142316      717.67024    
   3830000   298.23624      0.015531399    8.4345751      739.93232     -32.726337      707.20599    
   3831000   304.09954      0.015531399    13.764544      754.47933     -30.989979      723.48935    
   3832000   307.84522      0.015531399    8.6185277      763.77247     -26.549927      737.22254    
   3833000   292.00475      0.015531399    6.4416457      724.47183     -26.508109      697.96372    
   3834000   297.63175      0.015531399    11.355622      738.43257     -26.452079      711.98049    
   3835000   306.72728      0.015531399    6.2703352      760.99884     -26.081027      734.91781    
   3836000   300.81309      0.015531399    3.2716566      746.32556     -33.610029      712.71553    
   3837000   302.09552      0.015531399    5.9014119      749.50731     -29.242355      720.26496    
   3838000   295.74882      0.015531399    8.0596139      733.76098     -34.497037      699.26394    
   3839000   299.52894      0.015531399    9.4471189      743.13956     -30.021611      713.11795    
   3840000   305.54009      0.015531399    9.1795788      758.05338     -27.126122      730.92725    
   3841000   309.18622      0.015531399    7.3099646      767.09953     -27.413677      739.68586    
   3842000   287.67356      0.015531399    9.0517361      713.72604     -24.318586      689.40746    
   3843000   299.97305      0.015531399    7.2198203      744.24141     -22.820611      721.4208     
   3844000   306.66877      0.015531399    11.05621       760.85366     -25.253147      735.60051    
   3845000   300.75161      0.015531399    7.9637829      746.17302     -24.733941      721.43908    
   3846000   307.63755      0.015531399    7.6809978      763.25724     -22.677224      740.58002    
   3847000   317.69536      0.015531399    11.807122      788.21094     -21.129169      767.08177    
   3848000   301.29974      0.015531399    8.9546254      747.53295     -22.48683       725.04612    
   3849000   302.94313      0.015531399    8.2724074      751.61026     -25.247969      726.36229    
   3850000   296.14324      0.015531399    5.7291575      734.73953     -26.637501      708.10203    
   3851000   311.16937      0.015531399    10.171539      772.01977     -26.500467      745.51931    
   3852000   294.07728      0.015531399    8.6966731      729.61383     -27.976883      701.63695    
   3853000   297.90899      0.015531399    8.0652326      739.12041     -25.996255      713.12415    
   3854000   298.8912       0.015531399    10.617535      741.5573      -22.709191      718.8481     
   3855000   305.23093      0.015531399    8.5663296      757.28634     -25.829425      731.45691    
   3856000   305.90286      0.015531399    6.8265437      758.95344     -25.510033      733.4434     
   3857000   305.68988      0.015531399    7.9509859      758.42502     -22.606821      735.8182     
   3858000   317.66838      0.015531399    10.645293      788.144       -25.380642      762.76335    
   3859000   292.98943      0.015531399    8.1514207      726.91485     -24.587986      702.32686    
   3860000   288.32744      0.015531399    8.3926236      715.34833     -29.56774       685.78059    
   3861000   305.75795      0.015531399    8.4595373      758.5939      -25.868501      732.7254     
   3862000   310.50632      0.015531399    12.556269      770.37475     -29.455038      740.91971    
   3863000   287.00904      0.015531399    9.385803       712.07734     -31.370037      680.7073     
   3864000   297.33636      0.015531399    7.5874686      737.69971     -28.282724      709.41698    
   3865000   308.45116      0.015531399    7.0740586      765.27583     -28.742137      736.53369    
   3866000   316.37729      0.015531399    10.372523      784.94079     -29.079915      755.86087    
   3867000   292.56919      0.015531399    12.211941      725.87222     -29.668781      696.20344    
   3868000   290.14825      0.015531399    6.7969693      719.8658      -30.631743      689.23405    
   3869000   296.00053      0.015531399    7.4586185      734.38548     -28.695189      705.69029    
   3870000   308.42161      0.015531399    4.9111127      765.20251     -25.54043       739.66208    
   3871000   307.52611      0.015531399    8.6421996      762.98075     -24.195626      738.78512    
   3872000   286.19419      0.015531399    8.0451154      710.05567     -27.76983       682.28584    
   3873000   313.90242      0.015531399    9.1991999      778.80055     -24.23182       754.56873    
   3874000   292.89357      0.015531399    8.4073984      726.67702     -27.984813      698.6922     
   3875000   293.8089       0.015531399    10.172271      728.94798     -25.356135      703.59184    
   3876000   303.73165      0.015531399    8.5920411      753.56659     -27.222393      726.3442     
   3877000   310.82851      0.015531399    7.3323541      771.17409     -24.887337      746.28676    
   3878000   299.10253      0.015531399    5.6288374      742.08163     -27.748963      714.33267    
   3879000   291.98491      0.015531399    10.6482        724.4226      -25.814655      698.60795    
   3880000   307.30936      0.015531399    8.4911217      762.44299     -24.973324      737.46967    
   3881000   295.75873      0.015531399    6.5209972      733.78557     -26.190772      707.5948     
   3882000   295.93288      0.015531399    9.3284678      734.21762     -25.557438      708.66019    
   3883000   298.7647       0.015531399    9.0632737      741.24345     -25.356051      715.8874     
   3884000   299.86356      0.015531399    7.775858       743.96976     -26.338675      717.63109    
   3885000   309.48845      0.015531399    7.7013459      767.84939     -25.525667      742.32372    
   3886000   293.84939      0.015531399    8.1407398      729.04844     -24.723594      704.32485    
   3887000   307.15349      0.015531399    11.779068      762.05628     -23.722654      738.33362    
   3888000   311.82838      0.015531399    10.752384      773.6548      -25.633061      748.02174    
   3889000   297.1185       0.015531399    3.9801998      737.15918     -29.101873      708.05731    
   3890000   295.12709      0.015531399    8.585158       732.21844     -30.730616      701.48782    
   3891000   292.85649      0.015531399    11.264362      726.58503     -27.342056      699.24297    
   3892000   303.3199       0.015531399    3.0483293      752.54503     -27.271874      725.27316    
   3893000   291.92057      0.015531399    4.9541373      724.26297     -23.803123      700.45985    
   3894000   299.72881      0.015531399    11.291604      743.63544     -23.310832      720.32461    
   3895000   298.91803      0.015531399    9.8302761      741.62388     -27.969111      713.65477    
   3896000   303.76213      0.015531399    5.2164919      753.64223     -24.483788      729.15844    
   3897000   294.81278      0.015531399    8.0886122      731.43864     -25.696762      705.74188    
   3898000   309.44907      0.015531399    8.7155252      767.75168     -25.369733      742.38194    
   3899000   303.20559      0.015531399    7.0528841      752.26143     -25.687627      726.57381    
   3900000   287.42709      0.015531399    9.1454057      713.11454     -26.234103      686.88044    
   3901000   306.93381      0.015531399    12.232299      761.51125     -29.533137      731.97811    
   3902000   302.48735      0.015531399    5.7840393      750.47947     -29.092399      721.38707    
   3903000   294.35586      0.015531399    7.7756089      730.305       -29.581434      700.72357    
   3904000   297.37185      0.015531399    8.2680567      737.78776     -30.918621      706.86914    
   3905000   317.84137      0.015531399    8.3977458      788.57321     -30.368146      758.20506    
   3906000   302.3111       0.015531399    8.5463604      750.04218     -32.444296      717.59788    
   3907000   288.87748      0.015531399    7.4314759      716.71299     -32.703661      684.00933    
   3908000   290.36027      0.015531399    8.1360274      720.39184     -27.13278       693.25906    
   3909000   305.57114      0.015531399    7.5458473      758.13043     -32.49346       725.63697    
   3910000   300.78097      0.015531399    8.3129572      746.24587     -33.314246      712.93162    
   3911000   302.47394      0.015531399    10.323993      750.44617     -35.265295      715.18088    
   3912000   291.63643      0.015531399    8.7701234      723.55802     -28.088788      695.46923    
   3913000   299.07423      0.015531399    7.7798892      742.0114      -31.495531      710.51587    
   3914000   300.95271      0.015531399    9.0572343      746.67196     -29.161045      717.51091    
   3915000   302.91572      0.015531399    9.9745646      751.54225     -23.972671      727.56958    
   3916000   299.3719       0.015531399    7.9504073      742.74994     -26.036362      716.71358    
   3917000   304.11033      0.015531399    6.0622123      754.5061      -24.99871       729.50739    
   3918000   299.98758      0.015531399    7.0397817      744.27745     -24.700585      719.57686    
   3919000   303.35925      0.015531399    9.7971734      752.64267     -28.635971      724.0067     
   3920000   291.31623      0.015531399    6.9469806      722.76359     -24.889809      697.87379    
   3921000   317.21254      0.015531399    7.687445       787.01305     -29.585589      757.42746    
   3922000   300.70456      0.015531399    8.3975729      746.05631     -26.417592      719.63871    
   3923000   307.05352      0.015531399    9.2195101      761.80826     -25.782352      736.0259     
   3924000   305.44549      0.015531399    8.8635516      757.81869     -22.279179      735.53951    
   3925000   282.64758      0.015531399    7.6423706      701.25643     -22.509249      678.74718    
   3926000   306.17467      0.015531399    8.6097693      759.62779     -22.863575      736.76421    
   3927000   295.18367      0.015531399    8.7590876      732.35882     -23.670416      708.68841    
   3928000   310.02303      0.015531399    8.4426617      769.17568     -24.547758      744.62793    
   3929000   304.6628       0.015531399    7.957534       755.8768      -22.933138      732.94367    
   3930000   301.22441      0.015531399    1.6910817      747.34608     -27.68896       719.65712    
   3931000   308.39705      0.015531399    10.69795       765.14157     -24.458134      740.68344    
   3932000   298.20325      0.015531399    7.6621975      739.85047     -25.828334      714.02214    
   3933000   280.40975      0.015531399    7.5158234      695.70432     -25.842586      669.86173    
   3934000   305.86507      0.015531399    9.0168297      758.85968     -25.193535      733.66614    
   3935000   297.54568      0.015531399    6.6948718      738.21902     -25.624489      712.59453    
   3936000   289.73829      0.015531399    6.7231062      718.84868     -30.496829      688.35185    
   3937000   297.60041      0.015531399    9.2577854      738.35481     -26.515814      711.83899    
   3938000   299.68917      0.015531399    8.6809173      743.53708     -27.782245      715.75484    
   3939000   294.75539      0.015531399    9.1897323      731.29625     -24.92683       706.36942    
   3940000   303.18502      0.015531399    11.398479      752.21039     -24.32597       727.88442    
   3941000   297.53012      0.015531399    8.9321491      738.18043     -23.33731       714.84312    
   3942000   297.38786      0.015531399    7.1786641      737.82747     -25.970443      711.85703    
   3943000   295.58159      0.015531399    7.5531637      733.34607     -25.381919      707.96415    
   3944000   304.25337      0.015531399    9.1192838      754.86101     -21.65677       733.20424    
   3945000   294.59608      0.015531399    1.8951832      730.90101     -22.309434      708.59157    
   3946000   302.04875      0.015531399    10.140765      749.39128     -19.549081      729.8422     
   3947000   305.01545      0.015531399    9.3819183      756.75174     -18.269436      738.4823     
   3948000   307.96197      0.015531399    9.6470068      764.06213     -19.287426      744.7747     
   3949000   288.24502      0.015531399    5.589922       715.14383     -19.989916      695.15391    
   3950000   297.21744      0.015531399    9.9980777      737.40467     -20.944227      716.46044    
   3951000   313.84184      0.015531399    8.762508       778.65026     -22.920482      755.72978    
   3952000   311.894        0.015531399    6.9306953      773.8176      -25.521712      748.29589    
   3953000   290.62965      0.015531399    7.5642106      721.06018     -21.049255      700.01092    
   3954000   293.71281      0.015531399    10.45439       728.70957     -21.614771      707.0948     
   3955000   312.83429      0.015531399    8.0049764      776.15049     -21.512054      754.63844    
   3956000   300.94507      0.015531399    3.9567211      746.65301     -23.299803      723.35321    
   3957000   292.52749      0.015531399    8.4183778      725.76877     -21.651766      704.117      
   3958000   297.28447      0.015531399    11.305761      737.57096     -19.821486      717.74947    
   3959000   308.14982      0.015531399    8.7255517      764.5282      -18.934148      745.59405    
   3960000   309.18669      0.015531399    8.2300606      767.10069     -22.067974      745.03272    
   3961000   285.11758      0.015531399    8.2668467      707.38458     -21.700049      685.68453    
   3962000   297.16095      0.015531399    8.213271       737.26451     -22.982815      714.28169    
   3963000   308.95979      0.015531399    7.75117        766.53776     -20.021194      746.51657    
   3964000   303.25526      0.015531399    10.966492      752.38467     -22.951084      729.43358    
   3965000   291.45222      0.015531399    8.8991292      723.101       -20.177129      702.92387    
   3966000   295.17177      0.015531399    8.677395       732.32931     -23.601123      708.72819    
   3967000   312.74826      0.015531399    8.7221564      775.93705     -19.175782      756.76127    
   3968000   311.51807      0.015531399    9.7218722      772.88491     -18.4391        754.44581    
   3969000   289.54226      0.015531399    7.3458252      718.36232     -21.345953      697.01637    
   3970000   300.84578      0.015531399    8.4377615      746.40667     -23.737861      722.66881    
   3971000   297.00228      0.015531399    12.011654      736.87085     -25.948925      710.92192    
   3972000   297.39024      0.015531399    8.5370533      737.83339     -20.73271       717.10068    
   3973000   300.25145      0.015531399    4.470815       744.93212     -24.868542      720.06358    
   3974000   310.58036      0.015531399    9.5828378      770.55844     -23.423069      747.13537    
   3975000   286.89258      0.015531399    19.235274      711.7884      -22.719489      689.06891    
   3976000   296.40301      0.015531399    9.3055903      735.38404     -20.830609      714.55343    
   3977000   304.25147      0.015531399    4.4673794      754.85629     -22.704513      732.15178    
   3978000   303.86681      0.015531399    14.146852      753.90194     -23.885527      730.01641    
   3979000   290.37004      0.015531399    6.1385699      720.41609     -24.739074      695.67701    
   3980000   299.06366      0.015531399    5.945141       741.98518     -25.160412      716.82476    
   3981000   313.84314      0.015531399    2.1532035      778.65349     -24.648821      754.00467    
   3982000   310.97632      0.015531399    21.809569      771.54081     -25.499196      746.04162    
   3983000   292.46523      0.015531399    9.9146167      725.61429     -22.227615      703.38668    
   3984000   298.69788      0.015531399   -2.6507473      741.07768     -21.748766      719.32891    
   3985000   302.56349      0.015531399    8.6740521      750.66835     -22.666561      728.00179    
   3986000   290.52268      0.015531399    3.7879207      720.79477     -22.980771      697.814      
   3987000   294.78012      0.015531399   -2.9341316      731.35759     -24.069546      707.28805    
   3988000   313.05034      0.015531399    13.828136      776.68653     -24.442585      752.24394    
   3989000   292.40016      0.015531399    7.2728999      725.45285     -25.186165      700.26668    
   3990000   292.03676      0.015531399    6.0208103      724.55126     -26.231013      698.32025    
   3991000   312.0347       0.015531399    8.0497285      774.16669     -29.213533      744.95316    
   3992000   302.50091      0.015531399    11.091352      750.5131      -26.246592      724.26651    
   3993000   300.83663      0.015531399    15.379642      746.38397     -32.118521      714.26545    
   3994000   295.72893      0.015531399    5.5671503      733.71163     -28.263448      705.44818    
   3995000   299.32097      0.015531399    1.8924024      742.62357     -26.054329      716.56924    
   3996000   298.49311      0.015531399    14.012497      740.56962     -17.461874      723.10775    
   3997000   284.65373      0.015531399    6.2226658      706.23374     -20.916743      685.317      
   3998000   309.56201      0.015531399    5.9882132      768.03187     -20.43974       747.59214    
   3999000   314.13367      0.015531399    15.008448      779.37429     -20.630375      758.74392    
   4000000   288.9995       0.015531399    17.542986      717.01573     -15.990274      701.02545    
Loop time of 10618.6 on 1 procs for 4000000 steps with 1500 atoms

Performance: 8.137 ns/day, 2.950 hours/ns, 376.697 timesteps/s, 565.046 katom-step/s
99.3% CPU use with 1 MPI tasks x 1 OpenMP threads

MPI task timing breakdown:
Section |  min time  |  avg time  |  max time  |%varavg| %total
---------------------------------------------------------------
Pair    | 713.5      | 713.5      | 713.5      |   0.0 |  6.72
Bond    | 182.01     | 182.01     | 182.01     |   0.0 |  1.71
Kspace  | 8874.2     | 8874.2     | 8874.2     |   0.0 | 83.57
Neigh   | 0.040164   | 0.040164   | 0.040164   |   0.0 |  0.00
Comm    | 26.9       | 26.9       | 26.9       |   0.0 |  0.25
Output  | 0.12676    | 0.12676    | 0.12676    |   0.0 |  0.00
Modify  | 803.19     | 803.19     | 803.19     |   0.0 |  7.56
Other   |            | 18.68      |            |       |  0.18

Nlocal:           1500 ave        1500 max        1500 min
Histogram: 1 0 0 0 0 0 0 0 0 0
Nghost:           1099 ave        1099 max        1099 min
Histogram: 1 0 0 0 0 0 0 0 0 0
Neighs:              0 ave           0 max           0 min
Histogram: 1 0 0 0 0 0 0 0 0 0

Total # of neighbors = 0
Ave neighs/atom = 0
Ave special neighs/atom = 2
Neighbor list builds = 16705
Dangerous builds = 0
write_data	last_conf.data pair ij
System init for write_data ...
PPPM initialization ...
  using 12-bit tables for long-range coulomb (src/kspace.cpp:342)
  G vector (1/distance) = 0.16213167
  grid = 27 27 27
  stencil order = 5
  estimated absolute RMS force accuracy = 0.038078778
  estimated relative force accuracy = 0.00011467311
  using double precision FFTW3
  3d grid and FFT values/proc = 32768 19683
Generated 1 of 1 mixed pair_coeff terms from arithmetic mixing rule
Total wall time: 2:56:58
