LAMMPS data file via write_data, version 29 Aug 2024, timestep = 0, units = real

1500 atoms
2 atom types
1000 bonds
1 bond types
500 angles
1 angle types

0 158 xlo xhi
0 158 ylo yhi
0 158 zlo zhi

Masses

1 12.0107
2 15.9994

PairIJ Coeffs # lj/cut/coul/long/gpu

1 1 0.053649 2.8 12
1 2 0.0917684 2.925 12
2 2 0.156973 3.05 12

Bond Coeffs # harmonic

1 0 1.16

Angle Coeffs # harmonic

1 0 180

Atoms # full

1 1 1 0.7 11.640914081428626 44.84296657091144 15.739157308702897 0 0 0
2 1 2 -0.35 10.63325333718641 45.080652596545 15.215969791906339 0 0 0
3 1 2 -0.35 12.648574825670842 44.605280545277886 16.262344825499454 0 0 0
4 2 1 0.7 36.01688736957353 37.82602042231058 107.9252377738828 0 0 0
5 2 2 -0.35 36.36420722570311 38.32658751312279 106.93811999715405 0 0 0
6 2 2 -0.35 35.66956751344395 37.325453331498366 108.91235555061155 0 0 0
7 3 1 0.7 59.47126564824547 25.56175006160594 14.33328541104369 0 0 0
8 3 2 -0.35 59.008656793292495 24.497986846769432 14.332352630367657 0 0 0
9 3 2 -0.35 59.933874503198446 26.62551327644245 14.334218191719723 0 0 0
10 4 1 0.7 107.52790341131757 17.472634014427957 98.55988049067551 0 0 0
11 4 2 -0.35 106.44284409355856 17.671677952579117 98.91852765381728 0 0 0
12 4 2 -0.35 108.61296272907657 17.273590076276797 98.20123332753374 0 0 0
13 5 1 0.7 23.91140678334581 85.01380769303712 33.06589687479003 0 0 0
14 5 2 -0.35 23.73874800830139 85.29878614255736 34.177011734158405 0 0 0
15 5 2 -0.35 24.084065558390233 84.72882924351688 31.954782015421653 0 0 0
16 6 1 0.7 52.528774596065645 105.11463607527065 63.68851707395563 0 0 0
17 6 2 -0.35 51.44130041167623 105.2881957204609 63.32399416953396 0 0 0
18 6 2 -0.35 53.61624878045506 104.9410764300804 64.0530399783773 0 0 0
19 7 1 0.7 120.90646197223404 36.90636733775323 135.3158456186372 0 0 0
20 7 2 -0.35 119.88508937266887 37.16904345400056 134.83273148014536 0 0 0
21 7 2 -0.35 121.92783457179921 36.643691221505904 135.79895975712907 0 0 0
22 8 1 0.7 1.4173124355344624 120.77010402771184 115.138393752807 0 0 0
23 8 2 -0.35 0.9424190358047589 121.78753630953523 115.42978320147807 0 0 0
24 8 2 -0.35 1.892205835264166 119.75267174588845 114.84700430413594 0 0 0
25 9 1 0.7 104.98380342730498 76.78420271481583 126.09502790965838 0 0 0
26 9 2 -0.35 104.6430464242562 77.49622128996955 125.2450195488117 0 0 0
27 9 2 -0.35 105.32456043035376 76.07218413966211 126.94503627050507 0 0 0
28 10 1 0.7 25.13407762867123 94.44270507732533 30.544234606690814 0 0 0
29 10 2 -0.35 25.140656938645574 93.48316310310807 31.19602898561373 0 0 0
30 10 2 -0.35 25.127498318696883 95.40224705154259 29.8924402277679 0 0 0
31 11 1 0.7 14.951034652512073 62.03940477037774 54.275975738780566 0 0 0
32 11 2 -0.35 14.556623680959527 62.01022669153008 55.36647499381641 0 0 0
33 11 2 -0.35 15.345445624064618 62.06858284922541 53.18547648374472 0 0 0
34 12 1 0.7 82.32424168490071 17.52999812622089 114.67850739447331 0 0 0
35 12 2 -0.35 81.40490290627395 18.213406417502476 114.86118010048226 0 0 0
36 12 2 -0.35 83.24358046352748 16.8465898349393 114.49583468846437 0 0 0
37 13 1 0.7 117.67377891283192 57.20218796618385 125.17314765191318 0 0 0
38 13 2 -0.35 117.75874908965406 56.05134540817538 125.05507362544108 0 0 0
39 13 2 -0.35 117.58880873600978 58.35303052419232 125.29122167838528 0 0 0
40 14 1 0.7 15.092585704798152 71.08794054253396 137.01669836836712 0 0 0
41 14 2 -0.35 14.391566299289094 70.74710859678946 137.87577076220813 0 0 0
42 14 2 -0.35 15.79360511030721 71.42877248827845 136.1576259745261 0 0 0
43 15 1 0.7 147.6494771464027 154.7623995899979 95.64990909474432 0 0 0
44 15 2 -0.35 146.86284006918888 154.7685145581581 94.7974041294116 0 0 0
45 15 2 -0.35 148.4361142236165 154.7562846218377 96.50241406007703 0 0 0
46 16 1 0.7 96.02215536777962 32.36526627203695 127.03023412499122 0 0 0
47 16 2 -0.35 94.87262806415872 32.215090948641404 126.98980702426537 0 0 0
48 16 2 -0.35 97.17168267140052 32.51544159543249 127.07066122571707 0 0 0
49 17 1 0.7 101.14493872744262 20.985192127984572 42.124095036706 0 0 0
50 17 2 -0.35 100.17321225746532 21.556880897828513 42.397077852977986 0 0 0
51 17 2 -0.35 102.11666519741992 20.41350335814063 41.85111222043402 0 0 0
52 18 1 0.7 139.66528191774398 106.39319152310173 64.36992877087087 0 0 0
53 18 2 -0.35 138.84964338085553 107.01497697654668 63.82797247463776 0 0 0
54 18 2 -0.35 140.48092045463244 105.77140606965679 64.91188506710398 0 0 0
55 19 1 0.7 39.39285202668647 55.664012519486256 27.058415005476405 0 0 0
56 19 2 -0.35 39.21311138817848 55.975631121240866 25.955606250564998 0 0 0
57 19 2 -0.35 39.572592665194456 55.352393917731646 28.161223760387813 0 0 0
58 20 1 0.7 46.78099704197654 40.21728449976876 7.900587613648078 0 0 0
59 20 2 -0.35 47.70145616840742 40.15259262333922 8.60355984474553 0 0 0
60 20 2 -0.35 45.86053791554566 40.2819763761983 7.197615382550627 0 0 0
61 21 1 0.7 65.17602258323507 157.41155643174963 64.02894841601558 0 0 0
62 21 2 -0.35 65.98565925436412 156.68308594671586 64.42822177249924 0 0 0
63 21 2 -0.35 64.36638591210601 0.1400269167833983 63.62967505953192 0 1 0
64 22 1 0.7 154.5360279737674 83.02215510840628 55.360906984359445 0 0 0
65 22 2 -0.35 153.6107229612376 82.33778170647282 55.21584258309839 0 0 0
66 22 2 -0.35 155.4613329862972 83.70652851033974 55.5059713856205 0 0 0
67 23 1 0.7 146.76368612924762 119.2727742648091 71.51706864662331 0 0 0
68 23 2 -0.35 147.5263248744941 119.87248580519427 70.88120056865608 0 0 0
69 23 2 -0.35 146.00104738400114 118.67306272442393 72.15293672459055 0 0 0
70 24 1 0.7 81.37274379812774 141.70501513299766 102.18934029163297 0 0 0
71 24 2 -0.35 80.55330608296781 142.44489194732097 102.54529552842583 0 0 0
72 24 2 -0.35 82.19218151328768 140.96513831867435 101.83338505484012 0 0 0
73 25 1 0.7 36.24228147521721 34.024753975693486 52.04006948044527 0 0 0
74 25 2 -0.35 35.19846080828902 33.54138771706136 51.890418301667516 0 0 0
75 25 2 -0.35 37.2861021421454 34.50812023432561 52.18972065922302 0 0 0
76 26 1 0.7 107.4477578436247 92.46607780012586 147.36958671518119 0 0 0
77 26 2 -0.35 106.36669170020731 92.76298612514783 147.07169169996726 0 0 0
78 26 2 -0.35 108.52882398704209 92.16916947510389 147.6674817303951 0 0 0
79 27 1 0.7 32.64392204985205 70.39789186343452 73.36854874406407 0 0 0
80 27 2 -0.35 31.797237428787966 70.32365529096151 72.57910964966791 0 0 0
81 27 2 -0.35 33.49060667091614 70.47212843590754 74.15798783846023 0 0 0
82 28 1 0.7 73.19874148499161 63.24813825415826 145.45963763792983 0 0 0
83 28 2 -0.35 72.36844475568783 63.80269056657459 146.05012817477285 0 0 0
84 28 2 -0.35 74.0290382142954 62.69358594174194 144.8691471010868 0 0 0
85 29 1 0.7 6.12978068652087 7.223998356249182 69.74037348001282 0 0 0
86 29 2 -0.35 4.970408011679325 7.24879218042587 69.76936084128384 0 0 0
87 29 2 -0.35 7.289153361362414 7.1992045320724944 69.7113861187418 0 0 0
88 30 1 0.7 82.45707857536947 38.11961623473075 144.39005711972248 0 0 0
89 30 2 -0.35 81.53725308603315 38.16865054675922 143.68499208342362 0 0 0
90 30 2 -0.35 83.37690406470578 38.07058192270228 145.09512215602135 0 0 0
91 31 1 0.7 41.69001117613632 112.01783732325669 113.79189197523141 0 0 0
92 31 2 -0.35 42.002191317770276 111.03229531087874 113.26572612589544 0 0 0
93 31 2 -0.35 41.37783103450237 113.00337933563463 114.31805782456738 0 0 0
94 32 1 0.7 68.32842771444862 51.88459673797926 22.41737521738623 0 0 0
95 32 2 -0.35 67.53705643998453 51.03714198980296 22.383434743810884 0 0 0
96 32 2 -0.35 69.11979898891272 52.732051486155555 22.451315690961575 0 0 0
97 33 1 0.7 96.82527861037538 100.45760457890927 2.96015772826977 0 0 0
98 33 2 -0.35 95.6841470982837 100.29423881728354 3.0895041624680384 0 0 0
99 33 2 -0.35 97.96641012246705 100.620970340535 2.8308112940715016 0 0 0
100 34 1 0.7 139.3709390300191 57.37227753054922 139.86845594079628 0 0 0
101 34 2 -0.35 138.3723214067411 57.31986991169539 139.28056455289823 0 0 0
102 34 2 -0.35 140.36955665329708 57.42468514940305 140.45634732869433 0 0 0
103 35 1 0.7 45.13899696298828 93.12195694405678 110.73035876207535 0 0 0
104 35 2 -0.35 43.99278540226242 93.30015903472108 110.72379576418838 0 0 0
105 35 2 -0.35 46.28520852371414 92.94375485339248 110.73692175996233 0 0 0
106 36 1 0.7 121.13971420058036 7.17656915410262 62.597773002738954 0 0 0
107 36 2 -0.35 120.15908140332387 6.621720960201379 62.8736403597594 0 0 0
108 36 2 -0.35 122.12034699783685 7.731417348003862 62.32190564571851 0 0 0
109 37 1 0.7 116.77085703367874 49.794165038407854 122.53180052085398 0 0 0
110 37 2 -0.35 115.61165037037479 49.791586034133466 122.48898392957594 0 0 0
111 37 2 -0.35 117.93006369698269 49.79674404268224 122.57461711213202 0 0 0
112 38 1 0.7 19.971353992806446 66.54655709795028 123.98514525032842 0 0 0
113 38 2 -0.35 20.01434210178415 67.15583928265627 122.99897729207464 0 0 0
114 38 2 -0.35 19.928365883828743 65.9372749132443 124.97131320858219 0 0 0
115 39 1 0.7 114.33622226972888 52.88768733334154 133.3610114713018 0 0 0
116 39 2 -0.35 113.54763540532547 52.17311634144766 132.89936327750678 0 0 0
117 39 2 -0.35 115.12480913413229 53.60225832523542 133.8226596650968 0 0 0
118 40 1 0.7 10.51979816915458 4.247828981023202 135.26168405695896 0 0 0
119 40 2 -0.35 10.268119909663215 4.288409871935053 136.39332500928978 0 0 0
120 40 2 -0.35 10.771476428645945 4.207248090111352 134.13004310462813 0 0 0
121 41 1 0.7 39.123945309372594 118.14881462517604 141.1274053338577 0 0 0
122 41 2 -0.35 38.60291287863253 118.90153589917911 140.4149898021767 0 0 0
123 41 2 -0.35 39.64497774011266 117.39609335117298 141.83982086553868 0 0 0
124 42 1 0.7 32.301446146472095 2.4053837565730247 137.28479672283157 0 0 0
125 42 2 -0.35 31.158825816330385 2.238903273497612 137.3957157469069 0 0 0
126 42 2 -0.35 33.444066476613806 2.5718642396484372 137.17387769875626 0 0 0
127 43 1 0.7 71.57852063029004 8.196233284751061 136.09281681109817 0 0 0
128 43 2 -0.35 72.68358020229755 8.253999591919055 135.7448133684848 0 0 0
129 43 2 -0.35 70.47346105828254 8.138466977583068 136.44082025371154 0 0 0
130 44 1 0.7 103.97214412687912 137.82634045734363 9.30406657480824 0 0 0
131 44 2 -0.35 103.35136527122471 138.70866226405923 8.877754668140703 0 0 0
132 44 2 -0.35 104.59292298253352 136.94401865062804 9.730378481475778 0 0 0
133 45 1 0.7 111.44692280210876 156.43153504209198 24.809452440035276 0 0 0
134 45 2 -0.35 110.32495821270793 156.1995417246996 24.991041428732036 0 0 0
135 45 2 -0.35 112.56888739150959 156.66352835948436 24.627863451338516 0 0 0
136 46 1 0.7 10.467159672857802 67.55262172108174 126.91326622055529 0 0 0
137 46 2 -0.35 10.159410800409557 67.20989257675194 127.97789167823221 0 0 0
138 46 2 -0.35 10.774908545306047 67.89535086541153 125.84864076287836 0 0 0
139 47 1 0.7 31.265368872911374 127.05464702148673 37.452490127390476 0 0 0
140 47 2 -0.35 30.5417589351568 127.20290678155057 38.346921623665416 0 0 0
141 47 2 -0.35 31.988978810665948 126.90638726142289 36.558058631115536 0 0 0
142 48 1 0.7 150.00157105177715 28.4046672184042 79.24193971941338 0 0 0
143 48 2 -0.35 148.99152270447937 27.83968968385561 79.32069707828494 0 0 0
144 48 2 -0.35 151.01161939907493 28.96964475295279 79.16318236054182 0 0 0
145 49 1 0.7 37.28086418066214 109.4842843885926 34.36771907581376 0 0 0
146 49 2 -0.35 37.46103595187803 108.59354997204876 33.646795826056035 0 0 0
147 49 2 -0.35 37.10069240944625 110.37501880513643 35.088642325571485 0 0 0
148 50 1 0.7 128.25450720184227 137.50254136300765 97.21268806942398 0 0 0
149 50 2 -0.35 127.58471508645124 136.70992134775648 97.73108177461651 0 0 0
150 50 2 -0.35 128.9242993172333 138.29516137825883 96.69429436423144 0 0 0
151 51 1 0.7 133.6483828088494 100.36986833176103 108.3770519077671 0 0 0
152 51 2 -0.35 132.82447304218832 100.92480695781356 108.9760642763501 0 0 0
153 51 2 -0.35 134.47229257551047 99.8149297057085 107.77803953918409 0 0 0
154 52 1 0.7 69.11141384165335 97.53243666772379 135.66307443364667 0 0 0
155 52 2 -0.35 69.0602673823492 96.3735965176199 135.67165034222046 0 0 0
156 52 2 -0.35 69.1625603009575 98.69127681782767 135.65449852507288 0 0 0
157 53 1 0.7 149.29200629950128 110.74987571814556 133.1611948726518 0 0 0
158 53 2 -0.35 148.25233493808148 110.67203102566938 132.6526443204972 0 0 0
159 53 2 -0.35 150.3316776609211 110.82772041062174 133.66974542480642 0 0 0
160 54 1 0.7 128.2022246588963 48.789842070448145 148.87567802186854 0 0 0
161 54 2 -0.35 127.48201438370153 49.6593104660227 149.14198962244362 0 0 0
162 54 2 -0.35 128.92243493409111 47.92037367487359 148.60936642129346 0 0 0
163 55 1 0.7 65.52051354456717 101.27114354040062 88.10948351310076 0 0 0
164 55 2 -0.35 64.69726978302353 101.10422175991539 88.90948778076383 0 0 0
165 55 2 -0.35 66.3437573061108 101.43806532088584 87.30947924543769 0 0 0
166 56 1 0.7 80.0894046845331 60.624532947607584 132.525250440708 0 0 0
167 56 2 -0.35 78.95034869896796 60.569654571486424 132.31278908991084 0 0 0
168 56 2 -0.35 81.22846067009823 60.67941132372874 132.73771179150515 0 0 0
169 57 1 0.7 25.884156979566512 61.02635557438543 91.95813869589854 0 0 0
170 57 2 -0.35 24.775814904581726 61.09411106491089 91.62259877528987 0 0 0
171 57 2 -0.35 26.9924990545513 60.95860008385996 92.29367861650721 0 0 0
172 58 1 0.7 142.4370619666004 81.70047265277266 119.84387515012355 0 0 0
173 58 2 -0.35 142.8101097585908 80.69181799691526 120.27867525374391 0 0 0
174 58 2 -0.35 142.06401417460998 82.70912730863006 119.40907504650319 0 0 0
175 59 1 0.7 32.00964812655452 154.15606300167556 16.950869161147097 0 0 0
176 59 2 -0.35 31.75361106933365 153.09929856156268 16.546772708004344 0 0 0
177 59 2 -0.35 32.26568518377538 155.21282744178845 17.35496561428985 0 0 0
178 60 1 0.7 19.257991399270477 85.06144753892974 43.748786792042104 0 0 0
179 60 2 -0.35 18.23818367151049 84.79617984380472 43.26378653603797 0 0 0
180 60 2 -0.35 20.277799127030463 85.32671523405476 44.23378704804624 0 0 0
181 61 1 0.7 111.85961385157873 140.53000348365399 103.768549772803 0 0 0
182 61 2 -0.35 110.78923844527905 140.82469234474428 104.1047862442604 0 0 0
183 61 2 -0.35 112.9299892578784 140.2353146225637 103.4323133013456 0 0 0
184 62 1 0.7 34.01603149995954 63.441419820041126 75.94291543119724 0 0 0
185 62 2 -0.35 34.58008429546229 64.25253093747013 76.55081608020873 0 0 0
186 62 2 -0.35 33.451978704456785 62.63030870261212 75.33501478218574 0 0 0
187 63 1 0.7 48.579652131805034 92.21337924721342 8.265007916030013 0 0 0
188 63 2 -0.35 47.51578333453991 92.63856865745622 8.083356745862966 0 0 0
189 63 2 -0.35 49.64352092907016 91.78818983697063 8.44665908619706 0 0 0
190 64 1 0.7 27.988044716412222 29.06754874022098 2.291676893966122 0 0 0
191 64 2 -0.35 28.028292046084285 29.974688153239477 1.5698194026267838 0 0 0
192 64 2 -0.35 27.94779738674016 28.16040932720248 3.01353438530546 0 0 0
193 65 1 0.7 122.21355688861271 43.25062691385421 113.28654114775664 0 0 0
194 65 2 -0.35 122.48356514089465 42.63682059117847 114.23308081514672 0 0 0
195 65 2 -0.35 121.94354863633077 43.864433236529955 112.34000148036655 0 0 0
196 66 1 0.7 106.89707034588655 1.0613033152470848 141.32481935775132 0 0 0
197 66 2 -0.35 106.15426294331532 1.288130874778511 140.46320086855647 0 0 0
198 66 2 -0.35 107.63987774845778 0.8344757557156587 142.18643784694618 0 0 0
199 67 1 0.7 32.23894572641652 57.96082388235294 77.56699070593667 0 0 0
200 67 2 -0.35 31.84272022510593 56.96947904209352 77.11329393517211 0 0 0
201 67 2 -0.35 32.635171227727106 58.95216872261236 78.02068747670124 0 0 0
202 68 1 0.7 10.412794677732881 101.84014865655459 13.378470712983267 0 0 0
203 68 2 -0.35 9.758096719081065 102.5058516864061 12.690132090658711 0 0 0
204 68 2 -0.35 11.067492636384697 101.17444562670308 14.066809335307823 0 0 0
205 69 1 0.7 17.95727310979612 27.889156343363766 105.05066291478028 0 0 0
206 69 2 -0.35 16.854904340698013 27.945366494420522 105.4073469708233 0 0 0
207 69 2 -0.35 19.059641878894226 27.83294619230701 104.69397885873725 0 0 0
208 70 1 0.7 94.4916087121198 62.467624597469175 141.3666096643389 0 0 0
209 70 2 -0.35 93.37783834327468 62.54574090316888 141.0519457034752 0 0 0
210 70 2 -0.35 95.60537908096492 62.389508291769474 141.6812736252026 0 0 0
211 71 1 0.7 102.60862854430854 131.219944193596 49.6020617678771 0 0 0
212 71 2 -0.35 103.651949714891 130.78086820111636 49.855622821358246 0 0 0
213 71 2 -0.35 101.56530737372609 131.65902018607565 49.34850071439596 0 0 0
214 72 1 0.7 53.85213271055935 68.79446637108664 142.5962988532131 0 0 0
215 72 2 -0.35 52.694888241651626 68.81274919721004 142.67408688218552 0 0 0
216 72 2 -0.35 55.00937717946708 68.77618354496325 142.5185108242407 0 0 0
217 73 1 0.7 71.99482595268395 53.039786759316826 3.696063837826282 0 0 0
218 73 2 -0.35 71.94293881215147 54.13376153186598 4.078329349837755 0 0 0
219 73 2 -0.35 72.04671309321644 51.94581198676767 3.3137983258148087 0 0 0
220 74 1 0.7 25.744922346316706 90.90987454490264 62.261476178775304 0 0 0
221 74 2 -0.35 24.59557160112137 91.0054897579652 62.13717575419867 0 0 0
222 74 2 -0.35 26.89427309151204 90.81425933184008 62.385776603351935 0 0 0
223 75 1 0.7 152.6301366764261 124.70712069361802 82.57749763809959 0 0 0
224 75 2 -0.35 152.09284680756116 124.01479678681315 81.81749289806073 0 0 0
225 75 2 -0.35 153.16742654529105 125.3994446004229 83.33750237813844 0 0 0
226 76 1 0.7 8.002803539858574 45.119094403050426 74.61963206837868 0 0 0
227 76 2 -0.35 8.96021777178431 45.447763772643356 75.18614282202546 0 0 0
228 76 2 -0.35 7.045389307932839 44.790425033457495 74.0531213147319 0 0 0
229 77 1 0.7 86.15617324046612 114.80365251414648 8.987805259874 0 0 0
230 77 2 -0.35 85.33664272182351 115.40915973590013 8.433431078100043 0 0 0
231 77 2 -0.35 86.97570375910873 114.19814529239282 9.542179441647956 0 0 0
232 78 1 0.7 10.043002702315805 48.74641782173254 51.04432985887133 0 0 0
233 78 2 -0.35 10.178955290861978 48.239159406203534 50.01001569308678 0 0 0
234 78 2 -0.35 9.907050113769632 49.25367623726155 52.07864402465588 0 0 0
235 79 1 0.7 120.05193805045073 52.92281392539051 91.73364403831476 0 0 0
236 79 2 -0.35 119.13900096136254 52.29899685097041 91.38293314736735 0 0 0
237 79 2 -0.35 120.96487513953892 53.5466309998106 92.08435492926218 0 0 0
238 80 1 0.7 3.3553519562610203 145.40032887896538 115.3274687711743 0 0 0
239 80 2 -0.35 4.290461305192043 144.80721444801517 115.67299124126909 0 0 0
240 80 2 -0.35 2.420242607329998 145.9934433099156 114.9819463010795 0 0 0
241 81 1 0.7 122.7676371265052 33.677185172996104 56.451202545525135 0 0 0
242 81 2 -0.35 122.02363339918435 34.51297249271779 56.75700969051214 0 0 0
243 81 2 -0.35 123.51164085382607 32.841397853274415 56.14539540053813 0 0 0
244 82 1 0.7 143.3611826409405 129.3966462870113 57.434145798643186 0 0 0
245 82 2 -0.35 143.63658148874228 128.35694858667537 57.86863879806398 0 0 0
246 82 2 -0.35 143.08578379313875 130.43634398734721 56.999652799222396 0 0 0
247 83 1 0.7 73.68843779605275 77.57403825855536 128.86101153998683 0 0 0
248 83 2 -0.35 72.80516013433551 77.62266217633103 128.11064077367763 0 0 0
249 83 2 -0.35 74.57171545777 77.52541434077969 129.61138230629604 0 0 0
250 84 1 0.7 61.020952558620344 1.149652732140223 46.21346908072637 0 0 0
251 84 2 -0.35 62.172058968852525 1.0063174520928182 46.21046411548186 0 0 0
252 84 2 -0.35 59.86984614838816 1.2929880121876278 46.21647404597088 0 0 0
253 85 1 0.7 139.77483976808136 51.73198214347101 143.42388531725103 0 0 0
254 85 2 -0.35 140.6808173830008 51.05188233823555 143.17434811324412 0 0 0
255 85 2 -0.35 138.86886215316193 52.412081948706465 143.67342252125795 0 0 0
256 86 1 0.7 77.2405270381088 53.53792949465007 1.9810165837318714 0 0 0
257 86 2 -0.35 76.60517638245744 53.85306975428041 2.898957846081223 0 0 0
258 86 2 -0.35 77.87587769376015 53.22278923501973 1.06307532138252 0 0 0
259 87 1 0.7 114.94572278156211 26.76278971450533 134.20673169112146 0 0 0
260 87 2 -0.35 114.63228735068896 26.25375088577725 135.20083314546127 0 0 0
261 87 2 -0.35 115.25915821243527 27.27182854323341 133.21263023678165 0 0 0
262 88 1 0.7 4.5395326784530345 139.92572676014422 59.68965774387571 0 0 0
263 88 2 -0.35 4.544183404951573 139.66686972961296 58.55891842445343 0 0 0
264 88 2 -0.35 4.534881951954496 140.18458379067548 60.820397063297996 0 0 0
265 89 1 0.7 62.077701319045254 65.92606919348522 123.44493490617951 0 0 0
266 89 2 -0.35 61.301606658939846 66.4187340136116 122.73743334889096 0 0 0
267 89 2 -0.35 62.85379597915066 65.43340437335884 124.15243646346806 0 0 0
268 90 1 0.7 41.0209681592048 85.41185175506949 86.99244745308181 0 0 0
269 90 2 -0.35 41.77510603344542 84.63609705397604 87.41087392256867 0 0 0
270 90 2 -0.35 40.26683028496418 86.18760645616294 86.57402098359495 0 0 0
271 91 1 0.7 108.06434394608455 27.428701842869025 108.19187309974426 0 0 0
272 91 2 -0.35 107.0583259524683 27.230209460069545 107.64953688438435 0 0 0
273 91 2 -0.35 109.0703619397008 27.627194225668504 108.73420931510417 0 0 0
274 92 1 0.7 116.81118740179164 95.62666191236426 21.306761106153374 0 0 0
275 92 2 -0.35 115.92520771058959 95.33416450242207 21.996025389251393 0 0 0
276 92 2 -0.35 117.6971670929937 95.91915932230644 20.617496823055355 0 0 0
277 93 1 0.7 74.73391111974321 110.84418952411235 138.29333175639312 0 0 0
278 93 2 -0.35 73.57491509718434 110.79700120822324 138.30340561048607 0 0 0
279 93 2 -0.35 75.89290714230208 110.89137784000147 138.28325790230016 0 0 0
280 94 1 0.7 116.02682969906687 26.926752216614204 45.92450463488908 0 0 0
281 94 2 -0.35 116.11628475733902 26.264454968879882 46.87263972452192 0 0 0
282 94 2 -0.35 115.93737464079472 27.589049464348527 44.97636954525625 0 0 0
283 95 1 0.7 23.14939858072875 75.94194630810149 32.29160026195068 0 0 0
284 95 2 -0.35 21.998506810912424 75.80325252327323 32.33416983111759 0 0 0
285 95 2 -0.35 24.300290350545076 76.08064009292976 32.24903069278376 0 0 0
286 96 1 0.7 152.92560260506608 34.60298334555839 132.3410887999186 0 0 0
287 96 2 -0.35 152.30742182483436 34.93810926455659 133.26366299279834 0 0 0
288 96 2 -0.35 153.5437833852978 34.2678574265602 131.41851460703884 0 0 0
289 97 1 0.7 90.67946023153117 139.68811134420713 16.08736208923504 0 0 0
290 97 2 -0.35 90.67146258304065 140.1495790305995 15.023132972909858 0 0 0
291 97 2 -0.35 90.68745788002168 139.22664365781475 17.151591205560223 0 0 0
292 98 1 0.7 42.29463377329271 3.9098277305764277 142.47466779801746 0 0 0
293 98 2 -0.35 42.003183365233724 3.3260707902990245 143.43377388929215 0 0 0
294 98 2 -0.35 42.586084181351694 4.493584670853831 141.51556170674277 0 0 0
295 99 1 0.7 81.74168127949427 22.437264460342593 115.1037849779724 0 0 0
296 99 2 -0.35 80.64437966191606 22.161612659630155 114.84776692231182 0 0 0
297 99 2 -0.35 82.83898289707248 22.71291626105503 115.35980303363297 0 0 0
298 100 1 0.7 155.31412478225033 46.495215281143416 135.083230177445 0 0 0
299 100 2 -0.35 155.04653426256914 47.61208880204221 134.9201692928286 0 0 0
300 100 2 -0.35 155.58171530193152 45.37834176024462 135.24629106206137 0 0 0
301 101 1 0.7 41.84959231775701 108.09808454201467 120.50689764065059 0 0 0
302 101 2 -0.35 40.97845621466459 108.00271656917084 119.74687998319479 0 0 0
303 101 2 -0.35 42.720728420849426 108.1934525148585 121.2669152981064 0 0 0
304 102 1 0.7 115.42864641427465 85.26028471405631 67.60518914442751 0 0 0
305 102 2 -0.35 116.52396684510153 85.64213374003259 67.59715950096026 0 0 0
306 102 2 -0.35 114.33332598344778 84.87843568808003 67.61321878789477 0 0 0
307 103 1 0.7 62.413950393169166 29.264257994137825 148.38410747441654 0 0 0
308 103 2 -0.35 61.38784721380592 28.724579474244447 148.34590589766466 0 0 0
309 103 2 -0.35 63.44005357253241 29.803936514031204 148.4223090511684 0 0 0
310 104 1 0.7 19.694322518862002 150.47857451368057 145.40185142932546 0 0 0
311 104 2 -0.35 18.534727660808407 150.50041462911673 145.38033923433284 0 0 0
312 104 2 -0.35 20.853917376915597 150.4567343982444 145.42336362431809 0 0 0
313 105 1 0.7 140.91697267299378 129.55971500629548 112.13011080777743 0 0 0
314 105 2 -0.35 140.03702947356254 130.20577375779823 111.73779963615287 0 0 0
315 105 2 -0.35 141.79691587242502 128.91365625479273 112.52242197940198 0 0 0
316 106 1 0.7 104.77234631533379 156.82452181485692 151.73814230027523 0 0 0
317 106 2 -0.35 103.64231724186794 156.7459479966702 151.48822141635895 0 0 0
318 106 2 -0.35 105.90237538879964 156.90309563304365 151.9880631841915 0 0 0
319 107 1 0.7 142.9576407256339 141.06767572884806 134.42597474922704 0 0 0
320 107 2 -0.35 143.65663323881103 140.15019768854816 134.54943936800424 0 0 0
321 107 2 -0.35 142.25864821245676 141.98515376914796 134.30251013044983 0 0 0
322 108 1 0.7 55.357610258905964 91.35562143258547 127.92941746391794 0 0 0
323 108 2 -0.35 56.50866306343679 91.39994801523683 128.06621145228058 0 0 0
324 108 2 -0.35 54.20655745437514 91.3112948499341 127.7926234755553 0 0 0
325 109 1 0.7 45.71931606890602 50.54517010345364 104.67392874540478 0 0 0
326 109 2 -0.35 44.571408408289216 50.64636756955159 104.54101119369463 0 0 0
327 109 2 -0.35 46.86722372952282 50.44397263735569 104.80684629711493 0 0 0
328 110 1 0.7 82.72042401820441 40.16647396151278 101.92787114527442 0 0 0
329 110 2 -0.35 83.49166679577708 40.93169036160922 102.33435415730008 0 0 0
330 110 2 -0.35 81.94918124063175 39.40125756141634 101.52138813324876 0 0 0
331 111 1 0.7 65.73033862734695 151.80130982017207 98.61414763173748 0 0 0
332 111 2 -0.35 64.8914868605567 152.09406788210097 99.35994950256409 0 0 0
333 111 2 -0.35 66.56919039413721 151.50855175824316 97.86834576091087 0 0 0
334 112 1 0.7 145.97924661169725 49.197802795655 53.47158657362293 0 0 0
335 112 2 -0.35 145.10401635218037 48.48298235129067 53.73350970193499 0 0 0
336 112 2 -0.35 146.85447687121413 49.91262324001933 53.209663445310866 0 0 0
337 113 1 0.7 150.95554288055538 103.80919349464085 85.11506442870716 0 0 0
338 113 2 -0.35 149.96339170960988 104.38595540909604 85.28412580225375 0 0 0
339 113 2 -0.35 151.9476940515009 103.23243158018566 84.94600305516056 0 0 0
340 114 1 0.7 154.88785328105456 150.1500946842833 154.64135874930832 0 0 0
341 114 2 -0.35 153.80519571173403 149.88772540828313 154.31791640420778 0 0 0
342 114 2 -0.35 155.9705108503751 150.41246396028345 154.96480109440887 0 0 0
343 115 1 0.7 115.31649962501437 96.40919761658144 59.38434188411774 0 0 0
344 115 2 -0.35 116.2301245060335 96.54354406250745 58.68231580963773 0 0 0
345 115 2 -0.35 114.40287474399524 96.27485117065542 60.08636795859775 0 0 0
346 116 1 0.7 144.63404636673351 34.41728569027841 13.320596509296726 0 0 0
347 116 2 -0.35 144.86312562924198 33.34225334450989 12.949883484114151 0 0 0
348 116 2 -0.35 144.40496710422505 35.49231803604693 13.6913095344793 0 0 0
349 117 1 0.7 151.26553175005387 99.79212315557157 36.21387569150602 0 0 0
350 117 2 -0.35 151.45605571219673 99.68044099047549 35.07509225561979 0 0 0
351 117 2 -0.35 151.075007787911 99.90380532066766 37.35265912739224 0 0 0
352 118 1 0.7 30.608747141719213 151.21321087480206 10.435172798314678 0 0 0
353 118 2 -0.35 29.454155304817906 151.28600327405948 10.520137242473497 0 0 0
354 118 2 -0.35 31.76333897862052 151.14041847554464 10.350208354155859 0 0 0
355 119 1 0.7 3.9492212747918543 14.561965426691792 0.9529264089432202 0 0 0
356 119 2 -0.35 4.946316998578974 14.988581723789702 1.3645070846993925 0 0 0
357 119 2 -0.35 2.952125551004735 14.135349129593882 0.5413457331870479 0 0 0
358 120 1 0.7 57.83415510870244 2.644911961930297 55.03534416250668 0 0 0
359 120 2 -0.35 57.18210172299816 1.7604900516588367 55.40712940538672 0 0 0
360 120 2 -0.35 58.48620849440672 3.5293338722017578 54.663558919626645 0 0 0
361 121 1 0.7 47.02933924972515 106.10477013052663 114.87158376112188 0 0 0
362 121 2 -0.35 45.983999826153294 105.62398685411713 115.0189368427029 0 0 0
363 121 2 -0.35 48.074678673297 106.58555340693613 114.72423067954087 0 0 0
364 122 1 0.7 44.70827317550232 121.94726066754538 149.61003943514547 0 0 0
365 122 2 -0.35 43.75512987147477 121.35701845654063 149.31216030808943 0 0 0
366 122 2 -0.35 45.66141647952987 122.53750287855013 149.9079185622015 0 0 0
367 123 1 0.7 83.93278648980558 34.34253416226363 20.971665164908238 0 0 0
368 123 2 -0.35 83.92379461412978 34.87691570983317 19.942123758364033 0 0 0
369 123 2 -0.35 83.94177836548138 33.808152614694094 22.001206571452443 0 0 0
370 124 1 0.7 130.77642661276107 21.40208067530863 96.76990991214751 0 0 0
371 124 2 -0.35 129.6243490847851 21.499220581187032 96.86415007459821 0 0 0
372 124 2 -0.35 131.92850414073703 21.304940769430225 96.67566974969681 0 0 0
373 125 1 0.7 117.87589346332284 136.14143806702526 131.14959249326475 0 0 0
374 125 2 -0.35 116.99692396648462 136.52113056395538 130.49472897206135 0 0 0
375 125 2 -0.35 118.75486296016106 135.76174557009514 131.80445601446814 0 0 0
376 126 1 0.7 131.20103430058856 47.78348999180994 141.11629234958266 0 0 0
377 126 2 -0.35 130.55690166364752 46.887933952886236 141.47500187994765 0 0 0
378 126 2 -0.35 131.8451669375296 48.67904603073364 140.75758281921767 0 0 0
379 127 1 0.7 3.525519436004348 3.4051609250740897 34.53966772022642 0 0 0
380 127 2 -0.35 3.1750573056732034 4.354944706430327 35.105960103961536 0 0 0
381 127 2 -0.35 3.875981566335492 2.4553771437178518 33.9733753364913 0 0 0
382 128 1 0.7 16.195373845377645 119.64821926208596 61.62113787868113 0 0 0
383 128 2 -0.35 15.286935051761224 119.12420387312167 61.12540929328248 0 0 0
384 128 2 -0.35 17.103812638994068 120.17223465105025 62.116866464079784 0 0 0
385 129 1 0.7 134.4643269937785 67.94378443525349 65.18500330540584 0 0 0
386 129 2 -0.35 133.40382303382165 68.40859101842692 65.25490460120552 0 0 0
387 129 2 -0.35 135.52483095373537 67.47897785208006 65.11510200960616 0 0 0
388 130 1 0.7 150.350553956046 47.760339265577656 68.02203656361533 0 0 0
389 130 2 -0.35 149.28071462855527 47.53414379064733 67.63489392778814 0 0 0
390 130 2 -0.35 151.42039328353675 47.986534740507985 68.40917919944252 0 0 0
391 131 1 0.7 116.36852468287968 81.79434515898784 117.55908710861536 0 0 0