LAMMPS data file via write_data, version 29 Aug 2024, timestep = 4000000, units = real

1500 atoms
2 atom types
1000 bonds
1 bond types
500 angles
1 angle types

0 158 xlo xhi
0 158 ylo yhi
0 158 zlo zhi

Masses

1 12.0107
2 15.9994

PairIJ Coeffs # lj/cut/coul/long/gpu

1 1 0.053649 2.8 12
1 2 0.0917684 2.925 12
2 2 0.156973 3.05 12

Bond Coeffs # harmonic

1 0 1.16

Angle Coeffs # harmonic

1 0 180

Atoms # full

1375 459 1 0.7 15.37080968782706 9.071170602707284 25.91333511118973 8 -5 6
1376 459 2 -0.35 16.321517223918878 8.445169775738831 25.69000095470147 8 -5 6
1377 459 2 -0.35 14.420102151735245 9.697171429675734 26.136669267677988 8 -5 6
955 319 1 0.7 8.082129168832745 11.78839079142087 24.409567662796412 -2 -6 9
957 319 2 -0.35 7.170142328999379 12.374750657183206 23.997181785502743 -2 -6 9
956 319 2 -0.35 8.99411600866611 11.202030925658535 24.821953540090085 -2 -6 9
150 50 2 -0.35 3.7933107989603663 22.96951697516243 24.52058816873469 -9 -3 -4
148 50 1 0.7 3.186711896841111 22.913626398166535 25.50776293307451 -9 -3 -4
1394 465 2 -0.35 39.045196940884274 6.262526223422711 7.886654804547012 -1 -6 -2
1393 465 1 0.7 38.14992006114269 5.578369439507427 8.16235174617357 -1 -6 -2
1395 465 2 -0.35 37.25464318140109 4.894212655592143 8.438048687800128 -1 -6 -2
1098 366 2 -0.35 43.34613041681982 16.903899441777785 2.5895093115097927 2 5 4
1097 366 2 -0.35 41.92315372843972 18.68527163499916 3.018753360435517 2 5 4
1096 366 1 0.7 42.634642072629774 17.794585538388475 2.804131335972655 2 5 4
987 329 2 -0.35 43.303020294471814 10.604239484114103 2.8557918042161177 -2 5 -8
985 329 1 0.7 44.12857277865614 11.091355092680638 3.5090769485057405 -2 5 -8
986 329 2 -0.35 44.95412526284047 11.578470701247173 4.162362092795363 -2 5 -8
1202 401 2 -0.35 43.66187824368768 5.472129914641786 6.362215105621127 -2 -2 -2
1201 401 1 0.7 44.10556656890699 4.815960553234828 7.209671558316412 -2 -2 -2
1203 401 2 -0.35 44.54925489412629 4.159791191827872 8.057128011011695 -2 -2 -2
1172 391 2 -0.35 35.780922885757946 10.447718466727366 23.608010178121702 3 -1 6
1171 391 1 0.7 34.85975906941861 9.822197749596553 23.933250175517085 3 -1 6
1173 391 2 -0.35 33.938595253079264 9.196677032465741 24.258490172912467 3 -1 6
1213 405 1 0.7 79.35599775566772 19.182897741337985 18.395173624994463 1 8 -1
1215 405 2 -0.35 78.60036809860397 19.982066280431216 18.763892308394976 1 8 -1
1214 405 2 -0.35 80.11162741273147 18.38372920224475 18.026454941593954 1 8 -1
718 240 1 0.7 103.30955397646296 15.674812907694083 13.686909382211166 -1 1 -5
719 240 2 -0.35 102.32838333618795 15.624391669011354 14.303644230709054 -1 1 -5
720 240 2 -0.35 104.29072461673796 15.72523414637681 13.070174533713276 -1 1 -5
1337 446 2 -0.35 85.61095069116973 20.180777594848085 23.852768285196223 -1 -1 3
1336 446 1 0.7 84.82737231787485 19.368846011402518 24.12178879873908 -1 -1 3
1338 446 2 -0.35 84.04379394457996 18.55691442795695 24.390809312281938 -1 -1 3
1014 338 2 -0.35 149.33721621774347 19.909402659437838 9.938319613474555 -1 0 2
1012 338 1 0.7 150.46462356714704 19.971942751207123 9.67253510408842 -1 0 2
1013 338 2 -0.35 151.5920309165506 20.034482842976406 9.406750594702284 -1 0 2
1341 447 2 -0.35 27.507010979780834 31.64682346076794 10.835368233746225 4 -3 2
1340 447 2 -0.35 27.733015569265703 29.378853007157264 10.402203199283464 4 -3 2
1339 447 1 0.7 27.62001327452327 30.5128382339626 10.618785716514845 4 -3 2
582 194 2 -0.35 29.48415215538145 33.88031528170599 18.181079936322575 -4 4 0
580 194 1 0.7 30.459017305733042 34.48977171826853 18.335354984736444 -4 4 0
581 194 2 -0.35 31.433882456084632 35.09922815483106 18.489630033150316 -4 4 0
55 19 1 0.7 31.94150945530773 52.49952676048735 16.869541003717018 5 4 -5
56 19 2 -0.35 31.119667555492615 51.839189330968374 16.385670803265313 5 4 -5
1032 344 2 -0.35 47.620931160940394 34.64487873017494 5.192190610290797 5 -3 1
1030 344 1 0.7 46.80431174683063 34.02842096007101 5.7387366286417905 5 -3 1
1031 344 2 -0.35 45.98769233272087 33.411963189967075 6.285282646992784 5 -3 1
1453 485 1 0.7 72.8108465346901 29.825832252051665 12.598104023881275 0 -2 0
1455 485 2 -0.35 73.52589188986677 28.985034796342383 12.954993052169423 0 -2 0
1454 485 2 -0.35 72.09580117951343 30.66662970776095 12.241214995593127 0 -2 0
1439 480 2 -0.35 104.93559980508425 51.53766525516368 10.283312410383301 3 -1 0
1438 480 1 0.7 104.20951313114742 52.44228844856793 10.27589487124052 3 -1 0
1440 480 2 -0.35 103.48342645721058 53.346911641972184 10.268477332097738 3 -1 0
136 46 1 0.7 102.66493832800556 51.24298355013136 17.37414329721876 3 -2 -2
138 46 2 -0.35 102.31409318762373 51.031921423924835 16.28880442555155 3 -2 -2
137 46 2 -0.35 103.01578346838738 51.45404567633789 18.459482168885973 3 -2 -2
1008 336 2 -0.35 121.2429632801014 29.700749041054994 13.485011725262394 1 -5 0
1006 336 1 0.7 122.11254307902168 30.24153356668334 14.029973256150537 1 -5 0
1007 336 2 -0.35 122.98212287794195 30.782318092311687 14.574934787038679 1 -5 0
1246 416 1 0.7 111.20648720062434 51.018442126386 7.932880280716371 7 6 2
1247 416 2 -0.35 111.51370463636826 51.20063620958817 6.829239594974462 7 6 2
1248 416 2 -0.35 110.89926976488042 50.836248043183836 9.03652096645828 7 6 2
310 104 1 0.7 130.0292275951864 52.78126123914963 17.165537933652722 -3 -6 2
311 104 2 -0.35 130.37655679269176 52.157354559108754 18.0797057974272 -3 -6 2
312 104 2 -0.35 129.68189839768107 53.405167919190504 16.251370069878245 -3 -6 2
265 89 1 0.7 142.8792449594705 31.924972763605826 26.223254840279267 1 8 5
1489 497 1 0.7 134.2245740003995 49.36684533499713 4.686098488745128 -4 7 -8
1490 497 2 -0.35 134.29427848586403 48.22405711573219 4.499614251838779 -4 7 -8
1491 497 2 -0.35 134.15486951493497 50.50963355426208 4.872582725651477 -4 7 -8
65 22 2 -0.35 140.4589278745447 42.141219740572645 14.736602850946527 -2 0 9
64 22 1 0.7 140.09474179779028 43.14638441378052 14.286477889147207 -2 0 9
66 22 2 -0.35 139.73055572103584 44.15154908698839 13.836352927347887 -2 0 9
267 89 2 -0.35 142.41798756367658 31.80753096327365 25.165403698407008 1 8 5
1391 464 2 -0.35 19.103250607628514 64.3226093506136 7.758323273680961 0 6 -4
1390 464 1 0.7 18.76848501492007 64.05890812569217 6.679437894265423 0 6 -4
1392 464 2 -0.35 18.43371942221163 63.79520690077075 5.600552514849883 0 6 -4
558 186 2 -0.35 3.9261254586522716 64.7582028774266 10.163000487078843 -6 -7 -1
557 186 2 -0.35 5.1677093592493115 64.69090240782528 8.204342766962704 -6 -7 -1
556 186 1 0.7 4.546917408950792 64.72455264262594 9.183671627020773 -6 -7 -1
990 330 2 -0.35 25.507168826400502 61.22672227072625 2.637275100134997 0 4 2
57 19 2 -0.35 32.76335135512285 53.15986419000633 17.353411204168726 5 4 -5
989 330 2 -0.35 26.971793146657753 60.134719619782224 4.067242166482926 0 4 2
988 330 1 0.7 26.239480986529127 60.68072094525424 3.3522586333089617 0 4 2
751 251 1 0.7 47.213932172598795 70.46552816451965 0.3337859669963506 -3 5 2
753 251 2 -0.35 47.521931425371115 70.03048560012756 1.3640647775414574 -3 5 2
847 283 1 0.7 65.12048183817447 61.79298516864862 1.4276707975867728 2 -3 1
849 283 2 -0.35 64.087090567547 61.54735992706732 0.961440465575853 2 -3 1
1436 479 2 -0.35 69.69904055352443 59.949402620315524 24.62616363714715 7 -3 -3
848 283 2 -0.35 66.15387310880195 62.03861041022992 1.8939011295976926 2 -3 1
1435 479 1 0.7 70.13129861888977 58.882324437723305 24.7679279385824 7 -3 -3
1437 479 2 -0.35 70.56355668425512 57.81524625513109 24.909692240017648 7 -3 -3
855 285 2 -0.35 99.26274685893918 54.42037103628936 5.1733436136085444 4 4 1
853 285 1 0.7 98.88471883353745 54.35334916796145 6.267968152515247 4 4 1
854 285 2 -0.35 98.50669080813572 54.28632729963354 7.36259269142195 4 4 1
392 131 2 -0.35 91.95870116099202 65.70659376812827 11.697278792687653 2 5 -5
391 131 1 0.7 92.38754506163711 66.43333522775937 10.901326683743626 2 5 -5
393 131 2 -0.35 92.81638896228222 67.16007668739046 10.105374574799598 2 5 -5
798 266 2 -0.35 93.88822141756954 52.307552122736745 19.071427789758086 5 0 4
796 266 1 0.7 92.80195453995674 52.443863900191545 19.45489013461956 5 0 4
797 266 2 -0.35 91.71568766234392 52.58017567764635 19.838352479481035 5 0 4
249 83 2 -0.35 82.17051320458602 78.87941499749616 22.802152115640084 1 5 -6
247 83 1 0.7 81.01564968567294 78.9835251923299 22.76972805023929 1 5 -6
248 83 2 -0.35 79.86078616675988 79.08763538716367 22.737303984838494 1 5 -6
1263 421 2 -0.35 102.16942174102488 65.35555572550862 14.853912494823488 -3 -7 16
1262 421 2 -0.35 100.11863180274747 66.40458237312008 15.12996271065159 -3 -7 16
1261 421 1 0.7 101.14402677188617 65.88006904931436 14.991937602737538 -3 -7 16
1112 371 2 -0.35 95.10373489790669 71.95255218712131 4.128623367794509 -2 9 0
1111 371 1 0.7 94.04216519103865 71.5741407048554 3.853897126692744 -2 9 0
1113 371 2 -0.35 92.9805954841706 71.19572922258946 3.5791708855909805 -2 9 0
1468 490 1 0.7 91.80055242606707 78.06897379101692 9.10951037754718 1 8 0
1469 490 2 -0.35 92.23044908952076 79.0277030479493 8.617954611987393 1 8 0
1470 490 2 -0.35 91.37065576261338 77.11024453408454 9.601066143106966 1 8 0
1078 360 1 0.7 105.08636250413366 73.94162995172952 24.95408525903272 -8 -1 0
1079 360 2 -0.35 105.80435443392462 74.84428912703842 24.830416338180793 -8 -1 0
347 116 2 -0.35 118.68436492075789 58.66474652565516 15.90973918892511 4 -3 2
346 116 1 0.7 119.1757296182325 57.9236559936368 16.654685869853584 4 -3 2
348 116 2 -0.35 119.6670943157071 57.18256546161844 17.39963255078206 4 -3 2
1010 337 2 -0.35 106.61843940189623 79.0638810761553 8.939728373394214 -4 5 0
1009 337 1 0.7 107.54374309094597 78.78549371774965 8.297923448427543 -4 5 0
1011 337 2 -0.35 108.4690467799957 78.507106359344 7.656118523460874 -4 5 0
1095 365 2 -0.35 112.26422527220119 64.33004299434337 9.34368862237371 5 1 3
1093 365 1 0.7 113.2251100799671 64.74274240659362 8.841712944343618 5 1 3
1094 365 2 -0.35 114.18599488773302 65.15544181884385 8.339737266313525 5 1 3
746 249 2 -0.35 113.50450097129308 64.37232235973427 2.726597480840075 -3 6 -2
745 249 1 0.7 114.40105180849493 64.5449873759371 2.0110673357785873 -3 6 -2
747 249 2 -0.35 115.29760264569678 64.71765239213993 1.2955371907171076 -3 6 -2
859 287 1 0.7 128.74260299266822 64.06815748396798 18.82455530626383 0 -5 1
861 287 2 -0.35 128.6049180701797 62.95294104800705 19.11253996398384 0 -5 1
806 269 2 -0.35 132.0727675554892 69.64277688561512 4.68063025180781 2 3 3
805 269 1 0.7 131.49887312996674 68.69160842525785 5.014581967441877 2 3 3
807 269 2 -0.35 130.92497870444427 67.74043996490059 5.348533683075943 2 3 3
860 287 2 -0.35 128.88028791515674 65.18337391992891 18.53657064854382 0 -5 1
693 231 2 -0.35 128.55234166519585 54.73165801652032 2.353087854893996 -1 5 8
691 231 1 0.7 127.93561026015308 53.991572273809965 2.9992422230370837 -1 5 8
927 309 2 -0.35 129.77265212069253 58.91659680343629 6.8881803474610095 1 2 -5
692 231 2 -0.35 127.31887885511031 53.251486531099616 3.645396591180172 -1 5 8
925 309 1 0.7 130.65330851020016 59.67157481308359 6.88093268796798 1 2 -5
926 309 2 -0.35 131.53396489970777 60.426552822730876 6.87368502847495 1 2 -5
240 80 2 -0.35 144.81244515553294 64.56911381599109 7.431861869536478 -5 0 0
238 80 1 0.7 144.06011980095366 63.98001938886883 6.774158048057379 -5 0 0
239 80 2 -0.35 143.3077944463744 63.390924961746585 6.116454226578281 -5 0 0
504 168 2 -0.35 154.9936443866609 67.43318451509901 21.101547890610895 2 0 2
503 168 2 -0.35 154.21220681704267 65.88583568268966 22.64345155674239 2 0 2
502 168 1 0.7 154.60292560185178 66.65951009889434 21.872499723676643 2 0 2
1193 398 2 -0.35 133.42762893196152 78.49585761787056 8.347183430155516 -1 2 3
1286 429 2 -0.35 4.358579525795774 88.53975170481974 17.162013992935943 0 5 2
1285 429 1 0.7 3.210743583340549 88.43966001919289 17.296380297032904 0 5 2
1287 429 2 -0.35 2.0629076408853244 88.33956833356602 17.43074660112987 0 5 2
1450 484 1 0.7 24.535475485043225 83.97623930286423 22.513375974845466 0 1 0
1451 484 2 -0.35 25.01106779515221 84.63355586040635 21.684312106530836 0 1 0
1452 484 2 -0.35 24.05988317493424 83.31892274532211 23.342439843160097 0 1 0
714 238 2 -0.35 65.8106080431047 99.08598208787285 19.514694240170115 -6 2 0
712 238 1 0.7 66.14976278477297 98.27963928318545 18.75286398182474 -6 2 0
713 238 2 -0.35 66.48891752644126 97.47329647849804 17.99103372347936 -6 2 0
893 298 2 -0.35 67.61575375754848 84.3679266112667 157.5378270869671 -3 0 -1
1457 486 2 -0.35 61.529166123224016 100.32906809751054 23.155923795191462 -1 0 4
1456 486 1 0.7 60.60429749670187 100.86289502472728 23.608965554252137 -1 0 4
1458 486 2 -0.35 59.67942887017972 101.39672195194402 24.062007313312808 -1 0 4
588 196 2 -0.35 106.92230087537088 93.27159980662469 6.307453922041992 -3 0 -2
587 196 2 -0.35 107.83469118886585 95.01583309674848 7.535295176219837 -3 0 -2
586 196 1 0.7 107.37849603211836 94.14371645168659 6.921374549130914 -3 0 -2
1253 418 2 -0.35 120.98885747816045 95.82673368330873 12.553331653573508 1 3 7
1252 418 1 0.7 120.05542626223661 95.35858062358943 13.058444391300116 1 3 7
1254 418 2 -0.35 119.12199504631276 94.89042756387013 13.563557129026721 1 3 7
191 64 2 -0.35 123.09917855589556 95.19811529561092 19.210598454800653 9 0 1
190 64 1 0.7 122.05981111627251 95.49759410036192 19.62967812617169 9 0 1
1425 475 2 -0.35 117.7997571385544 97.66986116915753 13.526596654887678 -1 -3 1
192 64 2 -0.35 121.02044367664946 95.79707290511293 20.048757797542727 9 0 1
1424 475 2 -0.35 116.95921125498953 98.29324626674598 15.597169917955144 -1 -3 1
1423 475 1 0.7 117.37948419677195 97.98155371795175 14.561883286421411 -1 -3 1
519 173 2 -0.35 129.22820595366935 84.4391693939127 17.247443005345467 3 4 4
517 173 1 0.7 128.4656546530845 84.96207301540944 17.9479337737366 3 4 4
518 173 2 -0.35 127.70310335249968 85.48497663690618 18.648424542127735 3 4 4
119 40 2 -0.35 132.0112533257812 80.0608508146424 22.909182969912774 -2 -3 5
118 40 1 0.7 132.4530172816771 79.12302553503255 22.388675186880878 -2 -3 5
120 40 2 -0.35 132.89478123757297 78.18520025542271 21.868167403848986 -2 -3 5
1194 398 2 -0.35 132.47047508382715 80.56236320646045 8.78968898190925 -1 2 3
1192 398 1 0.7 132.94905200789435 79.5291104121655 8.568436206032382 -1 2 3
416 139 2 -0.35 137.53283786837466 93.59856289606846 13.2783455124594 -2 -1 1
417 139 2 -0.35 135.74247119448725 94.08232122575265 11.884442699670867 -2 -1 1
415 139 1 0.7 136.63765453143097 93.84044206091055 12.581394106065133 -2 -1 1
1368 456 2 -0.35 140.9295290943847 84.56565881047041 4.996844185457073 -7 3 4
1367 456 2 -0.35 142.88332066341184 84.38622909062533 3.7587393916567824 -7 3 4
1366 456 1 0.7 141.90642487889826 84.47594395054787 4.3777917885569275 -7 3 4
1487 496 2 -0.35 138.66058700274067 95.69641529241682 5.4615450055618835 -4 5 5
1486 496 1 0.7 138.62541580918503 96.30258064547772 4.473149056616409 -4 5 5
1488 496 2 -0.35 138.59024461562942 96.9087459985386 3.484753107670934 -4 5 5
662 221 2 -0.35 137.59112995370762 97.12767397133233 7.816240702205544 1 -3 4
663 221 2 -0.35 135.4649075660187 96.22709645883963 7.591433001982514 1 -3 4
661 221 1 0.7 136.52801875986316 96.67738521508598 7.703836852094029 1 -3 4
615 205 2 -0.35 9.223728865164185 122.01901807444234 20.36032463109975 -2 -9 1
613 205 1 0.7 9.725212324236034 121.94347479705094 19.31705690250978 -2 -9 1
614 205 2 -0.35 10.226695783307884 121.86793151965952 18.27378917391981 -2 -9 1
215 72 2 -0.35 19.833635222512356 132.64772528648749 3.6804988166741612 -3 -4 -2
825 275 2 -0.35 22.05484242095154 129.8476086867531 9.701754366048572 3 1 -4
823 275 1 0.7 21.39815544279861 128.90033361619763 9.832261658680835 3 1 -4
755 252 2 -0.35 0.7308207718565357 117.08728509575137 11.936432677370734 6 4 2
824 275 2 -0.35 20.74146846464568 127.95305854564215 9.962768951313098 3 1 -4
754 252 1 0.7 0.7559047518746185 117.98038604708252 11.196607370505186 6 4 2
423 141 2 -0.35 0.11185140528168935 126.41600675306394 1.449177984359518 0 -1 -4
421 141 1 0.7 157.79694233287734 125.48155334428088 0.8382531911721062 -1 -1 -4
585 195 2 -0.35 37.087087745756854 115.68285383308839 4.534136635486185 -1 -9 -2
584 195 2 -0.35 38.98852377018636 115.71923220001628 5.862902099902678 -1 -9 -2
407 136 2 -0.35 41.856026222987566 116.97029081196777 7.055429992053932 -6 7 -3
406 136 1 0.7 42.11703066309942 117.19330986032072 5.947396063731316 -6 7 -3
408 136 2 -0.35 42.37803510321128 117.41632890867366 4.839362135408699 -6 7 -3
583 195 1 0.7 38.037805757971604 115.70104301655233 5.1985193676944315 -1 -9 -2
242 81 2 -0.35 72.14004285104598 114.85107097083826 1.5469666945048832 4 -3 3
241 81 1 0.7 72.87408086581821 115.74865677878327 1.5133823194953757 4 -3 3
243 81 2 -0.35 73.60811888059044 116.64624258672828 1.4797979444858682 4 -3 3
386 129 2 -0.35 106.11260216319899 121.36279346695653 10.769316633117775 7 -4 -1
385 129 1 0.7 107.10443302311101 120.90132307270923 10.383419469928514 7 -4 -1
387 129 2 -0.35 108.09626388302304 120.43985267846192 9.997522306739253 7 -4 -1
467 156 2 -0.35 125.27922915158443 126.33203316513821 10.900644130762561 4 1 0
466 156 1 0.7 124.79571652353789 126.92249112821793 10.027045291275222 4 1 0
468 156 2 -0.35 124.31220389549132 127.51294909129764 9.153446451787882 4 1 0
756 252 2 -0.35 0.7809887318927012 118.87348699841367 10.456782063639638 6 4 2
1293 431 2 -0.35 145.54315742495638 111.18399046130226 25.35706614266329 7 -1 3
1291 431 1 0.7 146.0399758521355 110.13835191879532 25.430628965052573 7 -1 3
214 72 1 0.7 20.98181559825893 132.71146040032374 3.528118831064517 -3 -4 -2
216 72 2 -0.35 22.129995974005503 132.77519551416003 3.3757388454548725 -3 -4 -2
252 84 2 -0.35 23.07063379578366 132.9655568572492 25.73242936909869 -1 2 -4
1200 400 2 -0.35 40.28881863390497 145.2267264811363 8.661774134981487 -5 2 -3
1199 400 2 -0.35 38.15778427266299 144.3290911884205 8.84977262560678 -5 2 -3
1198 400 1 0.7 39.22330145328398 144.7779088347784 8.755773380294134 -5 2 -3
857 286 2 -0.35 70.93655094683838 134.68568683696495 9.679147983283276 -5 6 -5
856 286 1 0.7 71.41839596807058 134.68333184696365 8.623960876871488 -5 6 -5
858 286 2 -0.35 71.90024098930279 134.68097685696233 7.568773770459701 -5 6 -5
479 160 2 -0.35 76.88379424176341 139.508376792326 11.16931853237597 2 2 6
480 160 2 -0.35 76.50582623413331 141.70157775623963 10.514024921005788 2 2 6
478 160 1 0.7 76.69481023794836 140.60497727428282 10.84167172669088 2 2 6
576 192 2 -0.35 57.85354748657605 155.61904856489633 1.8002958329608463 -1 7 5
575 192 2 -0.35 55.87145967159558 154.46749261854492 2.1575727509513065 -1 7 5
574 192 1 0.7 56.86250357908581 155.0432705917206 1.9789342919560764 -1 7 5
567 189 2 -0.35 78.95689699761537 144.8311306874304 3.0847967815250805 -3 3 -4
485 162 2 -0.35 79.15672832398266 146.0659840606687 26.047524870840725 2 2 3
1494 498 2 -0.35 83.3793815188565 142.53701040044874 17.145381702885253 7 4 1
1492 498 1 0.7 83.67556954114609 142.4627089596315 16.026296383820718 7 4 1
1493 498 2 -0.35 83.97175756343566 142.38840751881426 14.907211064756181 7 4 1
565 189 1 0.7 79.7337460223447 144.32508428461242 3.781950015018303 -3 3 -4
566 189 2 -0.35 80.51059504707405 143.81903788179446 4.479103248511525 -3 3 -4
1275 425 2 -0.35 123.54577132997244 153.00449738279676 14.033458444341298 0 -5 -1
1274 425 2 -0.35 125.80485091813001 152.61328888540976 14.388303940208246 0 -5 -1
1273 425 1 0.7 124.67531112405123 152.80889313410324 14.21088119227477 0 -5 -1
618 206 2 -0.35 127.9097387436806 138.73602018413646 20.190288875982493 -1 -4 -2
616 206 1 0.7 128.55417189010717 139.41472792702942 19.504970176745324 -1 -4 -2
617 206 2 -0.35 129.19860503653373 140.09343566992237 18.819651477508156 -1 -4 -2
1081 361 1 0.7 150.7050349962829 140.656255755483 23.10220600201176 -4 1 6
1082 361 2 -0.35 151.03900146153416 140.0730507877336 22.156722863251616 -4 1 6
1083 361 2 -0.35 150.37106853103165 141.23946072323238 24.0476891407719 -4 1 6
505 169 1 0.7 148.08256633318476 140.4382985717514 6.760801777970768 14 -3 -3
507 169 2 -0.35 148.83315271701545 141.14764300341326 7.289054139705819 14 -3 -3
506 169 2 -0.35 147.33197994935406 139.72895414008954 6.232549416235717 14 -3 -3
149 50 2 -0.35 2.580112994721856 22.85773582117064 26.494937697414326 -9 -3 -4
632 211 2 -0.35 10.978302006594195 23.94312248654623 50.77245287350402 -2 -2 -4
631 211 1 0.7 11.848842601890244 24.373385974280634 50.13791965682763 -2 -2 -4
633 211 2 -0.35 12.719383197186293 24.80364946201504 49.50338644015123 -2 -2 -4
1256 419 2 -0.35 67.43941609122287 1.696676173905221 36.94591852725081 0 -1 6
1255 419 1 0.7 67.12574032950823 2.638832879316106 37.545541958216596 0 -1 6
1257 419 2 -0.35 66.81206456779361 3.580989584726991 38.14516538918238 0 -1 6
1004 335 2 -0.35 79.09334427658158 5.865766801277683 30.7447314173234 -2 8 1
1003 335 1 0.7 79.83382293226295 4.976492101468434 30.66422136354896 -2 8 1
1005 335 2 -0.35 80.57430158794432 4.087217401659186 30.583711309774525 -2 8 1
886 296 1 0.7 97.21175630066946 8.048722739869977 50.93738750589421 1 4 -1
887 296 2 -0.35 96.6428921571158 7.272162847508745 50.2901253335447 1 4 -1
888 296 2 -0.35 97.78062044422312 8.825282632231207 51.584649678243714 1 4 -1
1148 383 2 -0.35 91.95236336868663 16.41433311699248 29.91700590389889 -3 -3 -8
1147 383 1 0.7 91.89050205599658 17.463862278552277 30.40717089349579 -3 -3 -8
1149 383 2 -0.35 91.82864074330652 18.513391440112073 30.897335883092687 -3 -3 -8
402 134 2 -0.35 89.03738097586282 23.92792303260605 49.61021455006887 -5 0 3
400 134 1 0.7 89.16463611559793 23.11398668471857 48.79356667552452 -5 0 3
401 134 2 -0.35 89.29189125533304 22.300050336831088 47.97691880098017 -5 0 3
85 29 1 0.7 110.27280278060861 1.7631668336012452 39.959902857165275 -1 0 -1
87 29 2 -0.35 110.53008679520183 2.882954028150854 40.11953234929209 -1 0 -1
86 29 2 -0.35 110.0155187660154 0.6433796390516366 39.800273365038464 -1 0 -1
257 86 2 -0.35 151.42423293962008 17.252956702347305 44.00152839645972 -6 1 -2
256 86 1 0.7 151.25826677353984 17.34651884223117 45.14577546667569 -6 1 -2
258 86 2 -0.35 151.09230060745963 17.440080982115035 46.290022536891655 -6 1 -2
620 207 2 -0.35 19.068304591716128 42.654239840460725 47.10256530237411 9 0 4
619 207 1 0.7 18.81589296005119 42.298273355915086 48.17735655190972 9 0 4
621 207 2 -0.35 18.56348132838625 41.942306871369446 49.252147801445325 9 0 4
152 51 2 -0.35 19.03088112957195 36.298432079221236 35.780384570583784 2 2 -5
153 51 2 -0.35 17.04708991481242 36.09596443212085 36.96612453707135 2 2 -5
151 51 1 0.7 18.038985522192185 36.19719825567104 36.37325455382757 2 2 -5
1056 352 2 -0.35 52.1764549048408 32.04780251422984 30.540151653660363 -3 3 1
1054 352 1 0.7 51.53838793653053 31.687821478210353 29.64077175747718 -3 3 1
1055 352 2 -0.35 50.900320968220264 31.327840442190862 28.741391861293998 -3 3 1
232 78 1 0.7 41.69165184381167 45.156095945163734 30.0217590004495 0 -3 8
233 78 2 -0.35 42.52868126569582 44.367109262371606 30.17169819237529 0 -3 8
234 78 2 -0.35 40.854622421927516 45.94508262795586 29.87181980852371 0 -3 8
820 274 1 0.7 35.87285775457118 34.751273675106084 48.996187060597215 -1 6 -5
822 274 2 -0.35 35.966554191121105 33.855196012157776 48.26552585337244 -1 6 -5
821 274 2 -0.35 35.77916131802125 35.647351338054385 49.72684826782199 -1 6 -5
730 244 1 0.7 43.873737679592914 31.133407661637474 49.12949795262396 4 -5 10
732 244 2 -0.35 44.119775535022704 30.097466161801975 48.6691822103196 4 -5 10
731 244 2 -0.35 43.62769982416312 32.16934916147298 49.58981369492832 4 -5 10
551 184 2 -0.35 62.80205625088074 38.068213888893354 36.102104089101644 -3 2 8
550 184 1 0.7 63.16233122112174 38.05573765650728 37.20466759722359 -3 2 8
552 184 2 -0.35 63.52260619136275 38.04326142412121 38.30723110534553 -3 2 8
475 159 1 0.7 62.43435716205116 40.43752397543293 26.302626459583806 0 -1 -1
476 159 2 -0.35 61.94066920400615 39.58910712955609 25.68451558303144 0 -1 -1
477 159 2 -0.35 62.928045120096165 41.28594082130977 26.920737336136167 0 -1 -1
185 62 2 -0.35 66.80089683785685 31.111251771952865 28.13623009466284 -6 6 2
184 62 1 0.7 66.98549495347855 31.364267695207147 27.019311799402 -6 6 2
186 62 2 -0.35 67.17009306910026 31.617283618461425 25.902393504141155 -6 6 2
934 312 1 0.7 112.07315688997656 36.014173956809024 29.536281363452993 -1 0 1
935 312 2 -0.35 112.73749051497819 36.25538579365663 30.45610617528285 -1 0 1
936 312 2 -0.35 111.40882326497493 35.77296211996141 28.616456551623134 -1 0 1
28 10 1 0.7 126.76023322933918 38.462847059535505 44.28580973821451 1 -5 -3
29 10 2 -0.35 126.93184092342499 38.9868363586103 45.30639095192877 1 -5 -3
30 10 2 -0.35 126.58862553525337 37.938857760460714 43.26522852450025 1 -5 -3
590 197 2 -0.35 108.7261230370561 37.50671827747681 33.813516984450814 -5 -4 2
589 197 1 0.7 108.51425365678298 36.6937791163539 34.613417782060196 -5 -4 2
591 197 2 -0.35 108.30238427650987 35.880839955231 35.41331857966958 -5 -4 2
266 89 2 -0.35 143.34050235526442 32.042414563938 27.281105982151523 1 8 5
908 303 2 -0.35 156.96115003237298 48.587544392649846 40.964910766059056 -3 1 -1
907 303 1 0.7 157.275564731472 47.74603300400079 40.231015691975315 -3 1 -1
909 303 2 -0.35 157.58997943057102 46.90452161535174 39.497120617891575 -3 1 -1
1184 395 2 -0.35 147.91644516118157 25.901851779527345 49.912169168372 1 5 1
1185 395 2 -0.35 149.94387911752403 27.02919584556344 49.943901004738024 1 5 1
1183 395 1 0.7 148.9301621393528 26.465523812545392 49.92803508655501 1 5 1
654 218 2 -0.35 154.29816435850293 36.578456730512826 47.85213956541372 0 3 6
652 218 1 0.7 153.69955406570966 37.14984562686671 47.03925553525515 0 3 6
653 218 2 -0.35 153.1009437729164 37.72123452322059 46.22637150509658 0 3 6
1250 417 2 -0.35 25.877392306468966 54.544041730319876 49.29480219312717 8 2 -1
1249 417 1 0.7 25.799679318315356 53.63569105282707 50.012060680821904 8 2 -1
1251 417 2 -0.35 25.72196633016175 52.72734037533426 50.72931916851663 8 2 -1
1462 488 1 0.7 41.2772784270318 63.61012843653449 36.34496919866134 -6 4 3
1463 488 2 -0.35 40.43284919472463 63.18272783882685 35.674247199094786 -6 4 3
1464 488 2 -0.35 42.12170765933897 64.03752903424213 37.01569119822789 -6 4 3
1445 482 2 -0.35 50.49016612969843 60.12932405124137 43.093501580434086 0 -1 2
1444 482 1 0.7 49.4624287311067 59.954983762228615 42.58461917440966 0 -1 2
1446 482 2 -0.35 48.43469133251496 59.78064347321587 42.07573676838525 0 -1 2
933 311 2 -0.35 63.89264214473926 55.24127971479357 41.925352288250565 -4 -3 -4
931 311 1 0.7 62.76937656971931 54.95541199265956 41.87894007629845 -4 -3 -4
932 311 2 -0.35 61.64611099469936 54.669544270525556 41.83252786434633 -4 -3 -4
21 7 2 -0.35 77.27610818744597 72.41357762691673 51.16685413341236 -1 -3 3
1070 357 2 -0.35 85.93508929739725 66.59787647029712 48.27572667636537 6 -2 -3
1069 357 1 0.7 86.92869962033271 66.13106816616529 47.90098872345678 6 -2 -3
1071 357 2 -0.35 87.92230994326817 65.66425986203346 47.52625077054818 6 -2 -3
1080 360 2 -0.35 104.36837057434269 73.03897077642063 25.07775417988465 -8 -1 0
19 7 1 0.7 78.38136332503464 72.23381288250464 51.469667140894416 -1 -3 3
20 7 2 -0.35 79.48661846262333 72.05404813809253 51.77248014837648 -1 -3 3
656 219 2 -0.35 96.48932643994726 70.20301537690598 46.55204001962661 -5 -3 -2
655 219 1 0.7 95.94113786686397 71.02847612909979 45.948961388823925 -5 -3 -2
657 219 2 -0.35 95.39294929378067 71.8539368812936 45.34588275802125 -5 -3 -2
1163 388 2 -0.35 127.49797045828878 70.81639040144533 26.028692399372055 -8 -3 -1
1162 388 1 0.7 126.59798372250224 70.91041288613104 26.754491026943587 -8 -3 -1
1164 388 2 -0.35 125.6979969867157 71.00443537081675 27.48028965451512 -8 -3 -1
1067 356 2 -0.35 127.49370051546437 63.93005335868094 45.986075947818875 -4 -13 5
1066 356 1 0.7 127.32627756610587 64.93898581670528 45.43869595990065 -4 -13 5
1068 356 2 -0.35 127.15885461674738 65.94791827472963 44.89131597198242 -4 -13 5
801 267 2 -0.35 6.495614918282592 88.92668997799439 44.39562352374025 4 -1 6
799 267 1 0.7 5.979321154524296 87.96503093459589 44.78837361445112 4 -1 6
800 267 2 -0.35 5.463027390765999 87.00337189119739 45.18112370516199 4 -1 6
1401 467 2 -0.35 27.662803079737028 81.07065704568741 33.10046563921963 4 0 -3
1400 467 2 -0.35 29.344403402511492 80.56219126578881 34.615748749771406 4 0 -3
1399 467 1 0.7 28.50360324112426 80.8164241557381 33.85810719449552 4 0 -3
983 328 2 -0.35 46.81762502361192 95.66155500600651 30.69855968532241 -2 -6 -7
982 328 1 0.7 47.788784872365376 96.27494557150338 30.536693807732117 -2 -6 -7
984 328 2 -0.35 48.759944721118835 96.88833613700027 30.374827930141823 -2 -6 -7
418 140 1 0.7 75.87358352973472 95.48401521001031 36.7766833926181 -2 5 -2
419 140 2 -0.35 76.18239100295055 94.84929976238027 37.69721272133291 -2 5 -2
420 140 2 -0.35 75.5647760565189 96.11873065764036 35.85615406390328 -2 5 -2
331 111 1 0.7 104.420071256326 103.38580787650791 49.58422639570175 -4 -3 0
333 111 2 -0.35 103.40105626970598 103.1332607939937 50.07761106120867 -4 -3 0
332 111 2 -0.35 105.439086242946 103.63835495902211 49.090841730194825 -4 -3 0
943 315 1 0.7 123.91332934529977 86.09513295893812 44.803840378388436 9 3 -2
944 315 2 -0.35 123.03405660793263 86.2421979378385 44.061646774734434 9 3 -2
945 315 2 -0.35 124.79260208266692 85.94806798003775 45.54603398204244 9 3 -2
368 123 2 -0.35 108.25866818943872 91.4525812775903 37.26977375120946 1 -4 -5
369 123 2 -0.35 106.6968810247457 90.02858201415462 36.312983831772044 1 -4 -5
367 123 1 0.7 107.47777460709221 90.74058164587247 36.79137879149075 1 -4 -5
1191 397 2 -0.35 115.34333014222891 92.58301632678324 50.61189528868979 7 4 7
1190 397 2 -0.35 113.2299435476166 92.49575016086892 51.56498590242466 7 4 7
1189 397 1 0.7 114.28663684492275 92.53938324382608 51.08844059555722 7 4 7
317 106 2 -0.35 141.06441606724354 88.51536267354211 27.96219318349527 3 -4 0
1047 349 2 -0.35 135.88584890551968 81.61709205481324 41.578182687505 2 1 2
316 106 1 0.7 140.54795513094965 87.49398795152543 27.77334991910512 3 -4 0
1045 349 1 0.7 135.8638362135368 81.17963116758253 40.50405820052236 2 1 2