LAMMPS (29 Aug 2024 - Update 1)
  using 1 OpenMP thread(s) per MPI task
package gpu 1 gpuID 0
# GCMC for CO2 molecular fluid, rigid/small/nvt dynamics
# Rigid CO2 TraPPE model
# [Potoff and J.I. Siepmann, Vapor-liquid equilibria of
# mixtures containing alkanes, carbon dioxide and
# nitrogen AIChE J., 47,1676-1682 (2001)].

# global model settings

units           real
atom_style      full
boundary        p p p
pair_style      lj/cut/coul/long  12
pair_modify     mix arithmetic shift yes
kspace_style    pppm 1.0e-4
bond_style      harmonic
angle_style     harmonic
neigh_modify    one 4000

# box, start molecules on simple cubic lattice
region          mbox block 0 ${lbox} 0 ${lbox} 0 ${lbox} units box
region          mbox block 0 158 0 ${lbox} 0 ${lbox} units box
region          mbox block 0 158 0 158 0 ${lbox} units box
region          mbox block 0 158 0 158 0 158 units box
create_box      2 mbox                                       bond/types 1                                angle/types 1                               extra/bond/per/atom 2                       extra/angle/per/atom 1                      extra/special/per/atom 2
Created orthogonal box = (0 0 0) to (158 158 158)
  1 by 1 by 1 MPI processor grid
molecule        co2mol ../CO2.txt
Read molecule template co2mol:
# CO2 molecule file. TraPPE model.
  1 molecules
  0 fragments
  3 atoms with max type 2
  2 bonds with max type 1
  1 angles with max type 1
  0 dihedrals with max type 0
  0 impropers with max type 0
create_atoms   	0 random ${nmols} 34578 mbox mol co2mol 464563 overlap 1.2
create_atoms   	0 random 500 34578 mbox mol co2mol 464563 overlap 1.2
Created 1500 atoms
  using lattice units in orthogonal box = (0 0 0) to (158 158 158)
  create_atoms CPU = 0.013 seconds

# rigid CO2 TraPPE model

pair_coeff      1   1  0.053649   2.800
pair_coeff      2   2  0.156973   3.050
bond_coeff      1       0       1.16
angle_coeff     1       0       180

# masses

mass 1 12.0107
mass 2 15.9994

write_data init_conf.data  pair ij
System init for write_data ...
PPPM initialization ...
  using 12-bit tables for long-range coulomb (src/kspace.cpp:342)
  G vector (1/distance) = 0.15674324
  grid = 30 30 30
  stencil order = 5
  estimated absolute RMS force accuracy = 0.037664379
  estimated relative force accuracy = 0.00011342516
  using double precision FFTW3
  3d grid and FFT values/proc = 42875 27000
Generated 1 of 1 mixed pair_coeff terms from arithmetic mixing rule

# MD settings

group           co2 type 1 2
1500 atoms in group co2
velocity       	all create 300 54654
timestep        0.25

# rigid constraints with thermostat
fix             myrigidnvt co2 rigid/nvt molecule temp 300 300 $(100*dt)
fix             myrigidnvt co2 rigid/nvt molecule temp 300 300 25
  500 rigid bodies with 1500 atoms

thermo 1000
thermo_style custom step temp density press ke pe etotal


variable    mvol equal vol
variable    mden equal density
variable	mtmp equal temp
variable    mpre equal press

fix mydat all ave/time 1 4000 4000 v_mtmp v_mden v_mpre file statistics.dat ## every 1ps

run 4000000 ## 1ns

CITE-CITE-CITE-CITE-CITE-CITE-CITE-CITE-CITE-CITE-CITE-CITE-CITE

Your simulation uses code contributions which should be cited:

- GPU package (short-range, long-range and three-body potentials): doi:10.1016/j.cpc.2010.12.021, doi:10.1016/j.cpc.2011.10.012, doi:10.1016/j.cpc.2013.08.002, doi:10.1016/j.commatsci.2014.10.068, doi:10.1016/j.cpc.2016.10.020, doi:10.3233/APC200086

@Article{Brown11,
 author = {W. M. Brown and P. Wang and S. J. Plimpton and A. N. Tharrington},
 title = {Implementing Molecular Dynamics on Hybrid High Performance Computers---Short Range Forces},
 journal = {Comput.\ Phys.\ Commun.},
 year =    2011,
 volume =  182,
 pages =   {898--911},
 doi =     {10.1016/j.cpc.2010.12.021}
}

@Article{Brown12,
 author = {W. M. Brown and A. Kohlmeyer and S. J. Plimpton and A. N. Tharrington},
 title = {Implementing Molecular Dynamics on Hybrid High Performance Computers - Particle-Particle Particle-Mesh},
 journal = {Comput.\ Phys.\ Commun.},
 year =    2012,
 volume =  183,
 doi =     {10.1016/j.cpc.2011.10.012},
 pages =   {449--459}
}

@Article{Brown13,
 author = {W. M. Brown and Y. Masako},
 title = {Implementing Molecular Dynamics on Hybrid High Performance Computers---Three-Body Potentials},
 journal = {Comput.\ Phys.\ Commun.},
 year =    2013,
 volume =  184,
 pages =   {2785--2793},
 doi =     {10.1016/j.cpc.2013.08.002},
}

@Article{Trung15,
 author = {T. D. Nguyen and S. J. Plimpton},
 title = {Accelerating Dissipative Particle Dynamics Simulations for Soft Matter Systems},
 journal = {Comput.\ Mater.\ Sci.},
 year =    2015,
 doi =     {10.1016/j.commatsci.2014.10.068},
 volume =  100,
 pages =   {173--180}
}

@Article{Trung17,
 author = {T. D. Nguyen},
 title = {{GPU}-Accelerated {T}ersoff Potentials for Massively Parallel
    Molecular Dynamics Simulations},
 journal = {Comput.\ Phys.\ Commun.},
 year =    2017,
 doi =     {10.1016/j.cpc.2016.10.020},
 volume =  212,
 pages =   {113--122}
}

@inproceedings{Nikolskiy19,
 author = {V. Nikolskiy and V. Stegailov},
 title = {{GPU} Acceleration of Four-Site Water Models in {LAMMPS}},
 booktitle = {Proceedings of the International Conference on Parallel
    Computing (ParCo 2019), Prague, Czech Republic},
 doi =     {10.3233/APC200086},
 year =    2019
}

CITE-CITE-CITE-CITE-CITE-CITE-CITE-CITE-CITE-CITE-CITE-CITE-CITE

PPPM initialization ...
  using 12-bit tables for long-range coulomb (src/kspace.cpp:342)
  G vector (1/distance) = 0.15674324
  grid = 30 30 30
  stencil order = 5
  estimated absolute RMS force accuracy = 0.037664379
  estimated relative force accuracy = 0.00011342516
  using double precision FFTW3
  3d grid and FFT values/proc = 42875 27000
Generated 1 of 1 mixed pair_coeff terms from arithmetic mixing rule
Per MPI rank memory allocation (min/avg/max) = 11.37 | 11.37 | 11.37 Mbytes
   Step          Temp         Density         Press          KinEng         PotEng         TotEng    
         0   307.69091      0.0092639081   67.455476      763.38962      36846.041      37609.43     
      1000   305.32305      0.0092639081   7.5385423      757.51491     -11.46154       746.05337    
      2000   318.60148      0.0092639081   6.0279531      790.45905     -15.835099      774.62395    
      3000   303.95115      0.0092639081   5.0411733      754.11119     -16.607252      737.50394    
      4000   281.88337      0.0092639081   3.895449       699.36042     -18.836005      680.52442    
      5000   295.70186      0.0092639081   5.0363462      733.64446     -22.603064      711.0414     
      6000   317.56072      0.0092639081   6.7707545      787.87689     -24.804461      763.07243    
      7000   300.22279      0.0092639081   3.0180001      744.86101     -27.733914      717.1271     
      8000   285.57663      0.0092639081   7.6367636      708.52349     -32.084289      676.4392     
      9000   301.7763       0.0092639081   10.572836      748.71533     -29.718379      718.99695    
     10000   314.69841      0.0092639081   5.2279087      780.77543     -36.077436      744.698      
     11000   315.13149      0.0092639081   2.2999446      781.8499      -32.993684      748.85622    
     12000   279.51478      0.0092639081   5.8377241      693.48387     -35.456222      658.02765    
     13000   308.16635      0.0092639081   2.3834018      764.5692      -41.763956      722.80524    
     14000   304.77398      0.0092639081   5.440889       756.15264     -40.328656      715.82398    
     15000   274.17397      0.0092639081   5.7651634      680.23317     -41.219081      639.01409    
     16000   309.37         0.0092639081   2.4980022      767.55551     -44.472944      723.08256    
     17000   308.41091      0.0092639081   5.3902061      765.17597     -44.080959      721.09501    
     18000   298.51374      0.0092639081   2.9027825      740.62082     -45.745799      694.87502    
     19000   291.62227      0.0092639081   4.6922555      723.52289     -50.385452      673.13744    
     20000   309.66882      0.0092639081   10.969367      768.29687     -52.6579        715.63897    
     21000   302.70393      0.0092639081   0.5172695      751.0168      -49.953638      701.06317    
     22000   305.68491      0.0092639081   4.8591871      758.4127      -50.171557      708.24114    
     23000   292.11692      0.0092639081   5.2082915      724.75013     -51.276674      673.47346    
     24000   296.70232      0.0092639081   6.595978       736.12663     -50.615366      685.51127    
     25000   308.73051      0.0092639081   3.2025156      765.9689      -53.825601      712.1433     
     26000   303.76631      0.0092639081   6.2113526      753.65259     -55.493493      698.1591     
     27000   311.3992       0.0092639081   6.8426591      772.59        -56.44287       716.14713    
     28000   316.50535      0.0092639081   6.7508451      785.25851     -59.20034       726.05817    
     29000   288.99729      0.0092639081   5.3273857      717.01024     -62.754678      654.25556    
     30000   290.31305      0.0092639081   5.0377801      720.27468     -61.992499      658.28218    
     31000   291.18375      0.0092639081   6.9046826      722.4349      -61.661442      660.77346    
     32000   310.19705      0.0092639081   5.4320233      769.60743     -60.751083      708.85635    
     33000   300.99025      0.0092639081   4.4919886      746.7651      -63.164467      683.60064    
     34000   288.36598      0.0092639081   5.1536736      715.44395     -69.451976      645.99197    
     35000   300.51369      0.0092639081   6.0506349      745.58275     -74.451299      671.13146    
     36000   318.50066      0.0092639081   6.2473145      790.20892     -70.932194      719.27673    
     37000   301.04555      0.0092639081   11.441189      746.90231     -71.522357      675.37995    
     38000   291.06718      0.0092639081   2.5314878      722.1457      -69.319608      652.82609    
     39000   294.70381      0.0092639081   5.3003289      731.16827     -72.973168      658.1951     
     40000   321.67306      0.0092639081   6.0642815      798.07972     -71.718889      726.36084    
     41000   313.09119      0.0092639081   4.2899763      776.78788     -72.063845      704.72404    
     42000   291.61644      0.0092639081   3.6872622      723.50842     -77.145383      646.36304    
     43000   298.60136      0.0092639081   5.0594731      740.83821     -80.014661      660.82355    
     44000   312.29568      0.0092639081   6.4027377      774.81419     -72.67961       702.13458    
     45000   295.59671      0.0092639081  -1.6712204      733.38359     -75.612258      657.77133    
     46000   290.39323      0.0092639081   4.8234383      720.47362     -77.193047      643.28057    
     47000   297.42012      0.0092639081   4.6962957      737.90753     -76.781616      661.12591    
     48000   300.97045      0.0092639081   5.8070257      746.71597     -80.901642      665.81433    
     49000   314.68585      0.0092639081   5.5049117      780.74427     -80.408996      700.33528    
     50000   295.30779      0.0092639081   5.6676138      732.66676     -82.469326      650.19744    
     51000   297.35221      0.0092639081   3.596369       737.73902     -84.858215      652.8808     
     52000   303.02031      0.0092639081   5.2658786      751.80174     -82.880829      668.92091    
     53000   308.33006      0.0092639081   7.5808571      764.97538     -91.437453      673.53792    
     54000   296.30091      0.0092639081   5.5139607      735.13073     -92.863465      642.26726    
     55000   307.71267      0.0092639081   3.6564645      763.44363     -87.425815      676.01781    
     56000   288.29971      0.0092639081   4.180945       715.27953     -85.416666      629.86286    
     57000   286.67255      0.0092639081   2.7537893      711.2425      -86.098779      625.14372    
     58000   300.18715      0.0092639081   5.9308536      744.77259     -83.48876       661.28383    
     59000   299.82166      0.0092639081   0.0076283187   743.86581     -84.280099      659.58571    
     60000   302.25663      0.0092639081   0.82284633     749.90704     -86.38033       663.52671    
     61000   299.48941      0.0092639081   6.103055       743.04149     -89.604192      653.4373     
     62000   319.46162      0.0092639081   4.4045579      792.5931      -88.835426      703.75767    
     63000   297.23204      0.0092639081   5.0252014      737.44089     -89.194455      648.24643    
     64000   289.88397      0.0092639081   8.4317799      719.21012     -82.913453      636.29666    
     65000   294.72381      0.0092639081   1.9273695      731.2179      -87.045956      644.17195    
     66000   306.20989      0.0092639081   5.8884972      759.71518     -81.76078       677.9544     
     67000   289.95931      0.0092639081   7.4555033      719.39704     -83.668557      635.72848    
     68000   304.94919      0.0092639081  -5.3527866      756.58735     -84.618652      671.9687     
     69000   306.49025      0.0092639081   5.4930916      760.41075     -86.75203       673.65872    
     70000   296.08041      0.0092639081   5.0940972      734.58366     -89.904885      644.67877    
     71000   284.22552      0.0092639081   5.5042876      705.17136     -82.877046      622.29431    
     72000   312.57907      0.0092639081   4.9539022      775.5173      -90.724087      684.79321    
     73000   305.61391      0.0092639081   6.9049102      758.23655     -93.285635      664.95091    
     74000   285.18614      0.0092639081   4.6762945      707.55467     -88.259825      619.29485    
     75000   310.43325      0.0092639081   4.6319117      770.19344     -89.908593      680.28485    
     76000   305.27927      0.0092639081   5.1020964      757.40628     -90.465483      666.9408     
     77000   301.07457      0.0092639081   9.7411554      746.97432     -90.602879      656.37144    
     78000   296.62296      0.0092639081   3.5716374      735.92973     -84.699465      651.23027    
     79000   294.85863      0.0092639081   4.9807224      731.55239     -83.072159      648.48023    
     80000   310.12655      0.0092639081   2.9193677      769.43252     -84.865462      684.56706    
     81000   313.43605      0.0092639081   4.1011119      777.64348     -87.452091      690.19139    
     82000   303.40987      0.0092639081   5.2494995      752.76824     -82.47231       670.29593    
     83000   298.60347      0.0092639081   5.0558096      740.84344     -85.377748      655.46569    
     84000   299.1931       0.0092639081   6.2124855      742.30633     -85.616263      656.69007    
     85000   311.84356      0.0092639081   5.9855173      773.69247     -85.956904      687.73557    
     86000   302.82685      0.0092639081   5.4969076      751.32176     -85.849572      665.47219    
     87000   295.45443      0.0092639081   4.1017259      733.03058     -92.439641      640.59094    
     88000   289.85963      0.0092639081   8.4831002      719.14973     -91.676597      627.47314    
     89000   305.28715      0.0092639081   5.4128756      757.42583     -93.17995       664.24588    
     90000   304.79105      0.0092639081   4.8718253      756.195       -87.591119      668.60388    
     91000   301.61383      0.0092639081   7.5696153      748.31222     -86.296262      662.01595    
     92000   308.27948      0.0092639081   6.5275498      764.84989     -88.356706      676.49318    
     93000   298.3901       0.0092639081  -2.3029952      740.31406     -88.540707      651.77335    
     94000   304.83957      0.0092639081   4.6356127      756.31536     -85.698878      670.61649    
     95000   301.67448      0.0092639081   10.82763       748.46269     -83.676265      664.78643    
     96000   299.37839      0.0092639081   2.9364411      742.76604     -82.869445      659.8966     
     97000   297.62206      0.0092639081   0.28640314     738.40853     -84.713268      653.69526    
     98000   301.35938      0.0092639081   5.5984655      747.68092     -86.823957      660.85696    
     99000   307.09601      0.0092639081   6.420461       761.91366     -89.415701      672.49796    
    100000   292.24836      0.0092639081   0.78656056     725.07624     -87.90316       637.17308    
    101000   293.67326      0.0092639081   1.7498074      728.61145     -88.24853       640.36292    
    102000   306.02508      0.0092639081   6.129269       759.25666     -94.943168      664.31349    
    103000   298.75103      0.0092639081   5.3660562      741.20955     -93.845436      647.36412    
    104000   289.41613      0.0092639081   4.2943666      718.04939     -87.589626      630.45976    
    105000   286.44771      0.0092639081   5.2086511      710.68466     -89.774848      620.90981    
    106000   302.84008      0.0092639081   5.5261335      751.35457     -96.306414      655.04816    
    107000   306.7256       0.0092639081   5.745151       760.99466     -98.227987      662.76667    
    108000   302.84211      0.0092639081   4.760439       751.35962     -92.249396      659.11022    
    109000   287.84022      0.0092639081   2.9064531      714.13953     -92.108376      622.03116    
    110000   302.13923      0.0092639081   5.6713421      749.61575     -93.479107      656.13664    
    111000   303.94531      0.0092639081   4.9898352      754.0967      -88.028376      666.06832    
    112000   304.94557      0.0092639081   4.8635872      756.57837     -88.174305      668.40406    
    113000   310.05463      0.0092639081   2.9201641      769.25409     -90.975538      678.27855    
    114000   308.85651      0.0092639081   2.5193307      766.28151     -85.315266      680.96625    
    115000   292.65676      0.0092639081   4.7959998      726.08948     -82.661714      643.42777    
    116000   300.49912      0.0092639081   5.0281776      745.54661     -87.394954      658.15166    
    117000   305.24206      0.0092639081   3.9029796      757.31397     -85.325429      671.98854    
    118000   296.57169      0.0092639081   5.5127708      735.80254     -86.50504       649.2975     
    119000   309.65461      0.0092639081   3.8071626      768.26163     -79.431916      688.82972    
    120000   298.30943      0.0092639081   0.53139463     740.11393     -92.350308      647.76362    
    121000   303.4053       0.0092639081   5.3431815      752.75692     -90.367598      662.38933    
    122000   299.23115      0.0092639081   5.3158719      742.40073     -89.518008      652.88272    
    123000   294.72926      0.0092639081   4.8329172      731.23141     -91.01595       640.21546    
    124000   302.24785      0.0092639081   4.4411023      749.88525     -89.115557      660.76969    
    125000   298.36665      0.0092639081   4.3021152      740.25588     -92.380564      647.87531    
    126000   309.27897      0.0092639081   2.4127877      767.32965     -89.157378      678.17227    
    127000   297.51037      0.0092639081   4.7995857      738.13142     -86.942582      651.18884    
    128000   296.90467      0.0092639081   3.8828398      736.62868     -89.715935      646.91274    
    129000   295.06959      0.0092639081   3.8343553      732.07577     -88.994411      643.08136    
    130000   294.91197      0.0092639081   12.866163      731.68473     -92.178922      639.50581    
    131000   307.6213       0.0092639081   6.1870949      763.21692     -84.554255      678.66267    
    132000   298.36351      0.0092639081   3.6243666      740.2481      -87.155249      653.09286    
    133000   300.91262      0.0092639081   4.5772491      746.5725      -87.38256       659.18994    
    134000   294.61641      0.0092639081   5.0194913      730.95142     -89.921107      641.03032    
    135000   303.33025      0.0092639081   3.6087389      752.57071     -93.524947      659.04577    
    136000   313.70364      0.0092639081   5.1166168      778.30737     -90.413489      687.89388    
    137000   286.42038      0.0092639081   5.052796       710.61686     -87.973569      622.64329    
    138000   292.5144       0.0092639081   3.4626878      725.73629     -90.69657       635.03972    
    139000   315.73181      0.0092639081   2.7882007      783.33932     -91.836399      691.50292    
    140000   316.45701      0.0092639081   7.0752374      785.13855     -95.856477      689.28208    
    141000   296.46142      0.0092639081   5.6837553      735.52896     -95.40635       640.12261    
    142000   294.67728      0.0092639081   4.7930574      731.10246     -95.190531      635.91193    
    143000   304.47283      0.0092639081   4.9988741      755.40548     -93.743177      661.66231    
    144000   306.66103      0.0092639081   4.6038682      760.83447     -88.610704      672.22377    
    145000   282.47163      0.0092639081   3.6926372      700.81991     -94.895702      605.9242     
    146000   297.10381      0.0092639081   4.0225402      737.12275     -97.173762      639.94899    
    147000   307.62177      0.0092639081   4.9870924      763.2181      -97.428682      665.78942    
    148000   299.53434      0.0092639081   3.5609568      743.15296     -90.656388      652.49658    
    149000   295.14531      0.0092639081   5.1080496      732.26364     -91.023876      641.23977    
    150000   306.91575      0.0092639081   3.8583364      761.46643     -96.921596      664.54484    
    151000   291.03491      0.0092639081   4.8438318      722.06564     -96.941519      625.12412    
    152000   302.48117      0.0092639081   4.3633655      750.46413     -96.8428        653.62133    
    153000   306.60824      0.0092639081   5.3099314      760.7035      -91.981748      668.72175    
    154000   297.74816      0.0092639081   4.0515348      738.7214      -96.213038      642.50836    
    155000   296.00715      0.0092639081   4.53527        734.40189     -104.78525      629.61665    
    156000   300.3319       0.0092639081   4.8139269      745.13173     -96.288305      648.84342    
    157000   307.80145      0.0092639081   4.8369982      763.66389     -94.701488      668.9624     
    158000   311.01941      0.0092639081   4.5243035      771.64773     -100.08811      671.55962    
    159000   287.91128      0.0092639081   4.3912504      714.31583     -93.867716      620.44811    
    160000   299.92908      0.0092639081   7.7653034      744.13231     -101.08277      643.04955    
    161000   302.95473      0.0092639081   4.0089536      751.63902     -98.425563      653.21346    
    162000   311.66062      0.0092639081   3.3684444      773.2386      -95.760793      677.4778     
    163000   297.80777      0.0092639081   2.6257856      738.86928     -94.51614       644.35314    
    164000   294.60246      0.0092639081   9.0170851      730.91682     -93.448587      637.46823    
    165000   300.62643      0.0092639081   6.2189583      745.86247     -91.667574      654.1949     
    166000   316.41518      0.0092639081  -1.7292971      785.03478     -90.471688      694.56309    
    167000   282.99135      0.0092639081  -0.02256089     702.10934     -92.065092      610.04425    
    168000   290.28962      0.0092639081   4.0721456      720.21655     -92.094129      628.12242    
    169000   315.31926      0.0092639081   12.807628      782.31578     -96.60078       685.715      
    170000   307.56926      0.0092639081  -0.70772152     763.0878      -100.95738      662.13043    
    171000   291.52866      0.0092639081  -1.4371329      723.29063     -109.24987      614.04076    
    172000   300.54229      0.0092639081   6.0286224      745.65371     -102.99182      642.66189    
    173000   302.45012      0.0092639081   5.9258436      750.38708     -98.404862      651.98222    
    174000   296.22102      0.0092639081   4.4417557      734.93251     -100.84428      634.08823    
    175000   304.43797      0.0092639081   2.7575272      755.31898     -100.20694      655.11204    
    176000   303.96099      0.0092639081   6.2158338      754.1356      -98.14546       655.99014    
    177000   305.13753      0.0092639081   8.4946697      757.05462     -93.860887      663.19373    
    178000   299.32853      0.0092639081   3.8343201      742.64233     -92.342828      650.29951    
    179000   298.44109      0.0092639081   3.4449537      740.44057     -95.279887      645.16068    
    180000   296.6155       0.0092639081   6.4294774      735.91124     -94.26705       641.64419    
    181000   310.11493      0.0092639081   4.2814406      769.4037      -94.481192      674.92251    
    182000   301.74283      0.0092639081   0.46429002     748.63229     -98.940294      649.69199    
    183000   303.86894      0.0092639081   4.4686203      753.90722     -97.295712      656.61151    
    184000   305.7658       0.0092639081   6.5081126      758.61338     -88.227266      670.38612    
    185000   300.13379      0.0092639081   6.4272413      744.6402      -95.842946      648.79726    
    186000   298.31604      0.0092639081  -2.6658912      740.13032     -92.755802      647.37451    
    187000   296.83525      0.0092639081   4.1402194      736.45643     -93.074392      643.38204    
    188000   302.92378      0.0092639081   5.6874273      751.56226     -98.471402      653.09085    
    189000   297.16747      0.0092639081  -1.1505829      737.28069     -92.503785      644.77691    
    190000   296.52961      0.0092639081  -3.3281602      735.69813     -93.384904      642.31323    
    191000   289.70135      0.0092639081   6.2854285      718.75703     -101.97201      616.78502    
    192000   302.96458      0.0092639081   5.5850374      751.66346     -101.60967      650.05379    
    193000   310.10445      0.0092639081   4.1676188      769.37768     -100.81339      668.56429    
    194000   301.22375      0.0092639081   2.4816605      747.34444     -95.059311      652.28513    
    195000   288.41885      0.0092639081   3.7213611      715.57511     -99.256706      616.3184     
    196000   306.77174      0.0092639081   7.8477561      761.10914     -102.12004      658.9891     
    197000   309.70885      0.0092639081  -0.37896017     768.39618     -95.782689      672.61349    
    198000   291.64825      0.0092639081  -0.205893       723.58734     -97.873685      625.71365    
    199000   299.77941      0.0092639081   6.9042534      743.76097     -94.334381      649.42659    
    200000   307.71725      0.0092639081   5.4451297      763.45498     -94.981353      668.47363    
    201000   302.83547      0.0092639081   3.2575863      751.34315     -90.149265      661.19388    
    202000   308.16134      0.0092639081   4.6717472      764.55677     -97.274194      667.28258    
    203000   304.7591       0.0092639081   4.7233469      756.11572     -99.977031      656.13869    
    204000   303.30124      0.0092639081   8.1925631      752.49873     -94.631837      657.8669     
    205000   288.22852      0.0092639081   8.8183546      715.1029      -90.971826      624.13107    
    206000   295.19592      0.0092639081   7.3520261      732.38922     -95.422887      636.96633    
    207000   297.50555      0.0092639081  -0.1782457      738.11947     -98.893935      639.22553    
    208000   302.07919      0.0092639081   0.65778818     749.4668      -99.195253      650.27154    
    209000   295.08441      0.0092639081   4.8800802      732.11255     -94.163929      637.94862    
    210000   304.21853      0.0092639081   10.334085      754.77455     -100.38403      654.39052    
    211000   291.24102      0.0092639081   3.3377002      722.577       -100.7226       621.8544     
    212000   291.72696      0.0092639081   0.09567374     723.78262     -104.61365      619.16897    
    213000   321.28885      0.0092639081   6.8616307      797.1265      -98.228588      698.89791    
    214000   295.17363      0.0092639081   4.561202       732.33392     -94.926511      637.40741    
    215000   302.32864      0.0092639081   3.7212474      750.08568     -94.43261       655.65307    
    216000   306.63527      0.0092639081   1.4685791      760.77055     -100.30648      660.46407    
    217000   305.00742      0.0092639081   7.3452124      756.73181     -94.02841       662.7034     
    218000   295.32296      0.0092639081   4.9912817      732.70441     -94.819497      637.88491    
    219000   298.2154       0.0092639081   1.1233237      739.88062     -88.897777      650.98284    
    220000   310.00826      0.0092639081   4.1875529      769.13905     -91.18567       677.95338    
    221000   315.83649      0.0092639081   7.5801434      783.59903     -91.169118      692.42991    
    222000   295.11646      0.0092639081   8.498204       732.19207     -86.809095      645.38298    
    223000   291.05199      0.0092639081   4.6316388      722.10801     -89.754768      632.35324    
    224000   299.58019      0.0092639081   2.3479233      743.26672     -89.591769      653.67495    
    225000   313.28445      0.0092639081   1.515672       777.26735     -93.133424      684.13392    
    226000   303.10043      0.0092639081   5.0073084      752.00053     -93.618291      658.38224    
    227000   302.1168       0.0092639081   16.161202      749.56011     -90.424209      659.1359     
    228000   289.47533      0.0092639081   4.4207289      718.19627     -98.388019      619.80825    
    229000   287.77597      0.0092639081   5.2310005      713.98012     -86.705714      627.27441    
    230000   297.44301      0.0092639081   3.6297779      737.9643      -88.748555      649.21575    
    231000   313.27474      0.0092639081   5.1775253      777.24326     -92.857399      684.38586    
    232000   294.45771      0.0092639081   4.1781014      730.5577      -93.771171      636.78653    
    233000   286.62962      0.0092639081   6.3447611      711.13599     -95.614736      615.52126    
    234000   313.71222      0.0092639081   5.9335417      778.32866     -99.235308      679.09335    
    235000   310.82034      0.0092639081   2.0492023      771.15384     -97.416339      673.7375     
    236000   283.59126      0.0092639081   6.8225655      703.59774     -92.208847      611.3889     
    237000   299.59972      0.0092639081   7.5473979      743.31516     -92.23766       651.0775     
    238000   305.36664      0.0092639081   3.2625392      757.62304     -93.168543      664.4545     
    239000   309.79471      0.0092639081  -5.3090266      768.60922     -97.987786      670.62144    
    240000   289.19484      0.0092639081   4.474596       717.50036     -94.025727      623.47464    
    241000   297.30327      0.0092639081   5.1815538      737.61762     -91.851737      645.76588    
    242000   321.26604      0.0092639081   3.8724948      797.06991     -98.537015      698.5329     
    243000   297.10502      0.0092639081   4.9656946      737.12574     -98.671786      638.45395    
    244000   292.60476      0.0092639081   5.4134734      725.96048     -98.959703      627.00078    
    245000   317.13214      0.0092639081   4.6919102      786.81359     -99.746469      687.06712    
    246000   302.21768      0.0092639081   3.4096893      749.81039     -98.414368      651.39603    
    247000   299.21157      0.0092639081   1.6138534      742.35215     -99.786344      642.5658     
    248000   289.05577      0.0092639081   7.8380625      717.15534     -102.75836      614.39698    
    249000   297.92952      0.0092639081   4.2744012      739.17134     -101.25349      637.91785    
    250000   296.66247      0.0092639081  -0.098252486    736.02777     -97.567245      638.46052    
    251000   298.35361      0.0092639081   0.21505129     740.22353     -100.04476      640.17877    
    252000   308.80869      0.0092639081   7.3356302      766.16287     -96.764749      669.39812    
    253000   300.2183       0.0092639081   7.1814976      744.84988     -95.446282      649.4036     
    254000   309.01923      0.0092639081  -2.3762831      766.68523     -89.285896      677.39934    
    255000   298.67235      0.0092639081   4.7155732      741.01433     -93.043755      647.97058    
    256000   300.86888      0.0092639081   6.0128332      746.46398     -98.232854      648.23112    
    257000   302.95235      0.0092639081   5.7557194      751.63314     -100.04836      651.58478    
    258000   296.56257      0.0092639081  -0.24047637     735.77991     -100.33883      635.44107    
    259000   291.03472      0.0092639081   14.370401      722.06516     -97.798006      624.26715    
    260000   304.13539      0.0092639081   4.2901061      754.56829     -103.15916      651.40913    
    261000   312.0522       0.0092639081  -1.8102539      774.21011     -97.636069      676.57404    
    262000   289.67948      0.0092639081   6.285068       718.70278     -97.472997      621.22979    
    263000   314.94663      0.0092639081   7.5415914      781.39126     -96.315693      685.07557    
    264000   292.60401      0.0092639081   1.2232764      725.95862     -96.796992      629.16163    
    265000   299.52976      0.0092639081   6.3794166      743.1416      -94.289024      648.85257    
    266000   313.34791      0.0092639081   7.9111278      777.4248      -92.473419      684.95138    
    267000   299.97751      0.0092639081   2.9955565      744.25248     -94.042532      650.20995    
    268000   294.12944      0.0092639081   4.8095766      729.74326     -93.505844      636.23741    
    269000   302.12681      0.0092639081   4.3683725      749.58493     -91.862639      657.72229    
    270000   305.62317      0.0092639081   4.9082507      758.2595      -93.749941      664.50956    
    271000   304.51539      0.0092639081   4.8810149      755.51109     -93.347525      662.16356    
    272000   289.20317      0.0092639081   6.9017812      717.52105     -91.613334      625.90771    
    273000   292.50515      0.0092639081   1.5401582      725.71333     -91.1309        634.58243    
    274000   322.56658      0.0092639081  -1.1239953      800.29658     -92.569974      707.7266     
    275000   315.08963      0.0092639081   7.7932157      781.74605     -89.65354       692.09251    
    276000   301.07241      0.0092639081   8.9062228      746.96895     -95.758639      651.21031    
    277000   286.16941      0.0092639081   5.4534197      709.99419     -92.447388      617.5468     
    278000   302.0885       0.0092639081   4.4196804      749.4899      -93.583397      655.90651    
    279000   303.82339      0.0092639081   9.3624859      753.79421     -89.529302      664.26491    
    280000   290.18159      0.0092639081   2.6626558      719.94853     -89.196579      630.75195    
    281000   295.51432      0.0092639081  -0.86369377     733.17919     -90.901843      642.27734    
    282000   315.83465      0.0092639081   4.0280709      783.59447     -92.932303      690.66217    
    283000   297.22171      0.0092639081   7.54088        737.41526     -87.516957      649.8983     
    284000   297.77025      0.0092639081   3.6941525      738.77619     -83.860499      654.91569    
    285000   295.83666      0.0092639081   2.6824506      733.97892     -81.937068      652.04185    
    286000   305.66278      0.0092639081   5.7138165      758.35778     -84.017412      674.34037    
    287000   295.92412      0.0092639081   5.121635       734.19589     -87.051215      647.14467    
    288000   298.90844      0.0092639081   0.34793854     741.60008     -87.312384      654.2877     
    289000   288.89941      0.0092639081   2.345689       716.76739     -90.685943      626.08145    
    290000   313.94651      0.0092639081   7.9965155      778.90994     -90.61097       688.29897    
    291000   304.96224      0.0092639081   5.2823087      756.61971     -91.197762      665.42195    
    292000   297.68753      0.0092639081  -0.13743197     738.57098     -91.98632       646.58466    
    293000   298.73022      0.0092639081   8.6330772      741.15791     -89.887231      651.27068    
    294000   294.58842      0.0092639081   4.3282887      730.88199     -91.594033      639.28796    
    295000   313.6693       0.0092639081  -0.92835259     778.22218     -93.268603      684.95357    
    296000   301.56877      0.0092639081   5.5122759      748.20042     -94.864692      653.33573    
    297000   291.10698      0.0092639081   5.7284028      722.24445     -87.163079      635.08137    
    298000   312.44595      0.0092639081   2.9710243      775.18702     -92.173898      683.01312    
    299000   300.04832      0.0092639081   4.8866407      744.42815     -92.966959      651.46119    
    300000   312.3538       0.0092639081   5.740022       774.95838     -97.479134      677.47924    
    301000   300.25604      0.0092639081   4.1446565      744.94351     -95.813659      649.12985    
    302000   291.3815       0.0092639081   3.9597029      722.92553     -89.598068      633.32746    
    303000   308.17756      0.0092639081   0.58356042     764.59701     -87.542897      677.05412    
    304000   310.63031      0.0092639081   5.9383073      770.68235     -79.863021      690.81933    
    305000   296.38971      0.0092639081   5.2402592      735.35105     -81.013517      654.33753    
    306000   285.53026      0.0092639081   3.264998       708.40845     -73.128212      635.28024    
    307000   301.0586       0.0092639081   3.8399835      746.93468     -80.011689      666.92299    
    308000   304.91009      0.0092639081   7.7388827      756.49033     -81.844664      674.64567    
    309000   291.7242       0.0092639081   2.9803096      723.77578     -79.607819      644.16796    
    310000   299.02464      0.0092639081   3.1603796      741.88837     -81.582561      660.30581    
    311000   310.877        0.0092639081   0.58945667     771.2944      -83.933803      687.3606     
    312000   313.72599      0.0092639081   5.401871       778.36283     -90.286699      688.07613    
    313000   300.70541      0.0092639081   5.7139521      746.05842     -84.536626      661.52179    
    314000   295.29148      0.0092639081   6.3704728      732.6263      -77.748109      654.87819    
    315000   296.48181      0.0092639081   4.0320367      735.57954     -77.86875       657.71079    
    316000   312.40962      0.0092639081   0.94045887     775.09687     -77.496847      697.60002    
    317000   315.80322      0.0092639081   5.54801        783.51648     -79.99507       703.52141    
    318000   301.45104      0.0092639081   6.8694032      747.90835     -81.190038      666.71831    
    319000   293.91898      0.0092639081   4.9392475      729.22108     -77.871814      651.34927    
    320000   302.8813       0.0092639081   3.4866282      751.45687     -78.804512      672.65235    
    321000   306.45429      0.0092639081   6.6615175      760.32153     -79.023512      681.29802    
    322000   281.94201      0.0092639081   8.1949047      699.50589     -80.3073        619.19859    
    323000   306.18116      0.0092639081   4.3088858      759.64391     -82.363716      677.28019    
    324000   317.90389      0.0092639081   3.6750805      788.72831     -80.278336      708.44998    
    325000   299.78378      0.0092639081   12.625467      743.77183     -79.352639      664.41919    
    326000   288.70327      0.0092639081   3.2472357      716.28076     -80.749005      635.53176    
    327000   301.36765      0.0092639081   3.020475       747.70145     -77.463503      670.23795    
    328000   300.04154      0.0092639081   6.0298346      744.41134     -76.546727      667.86461    
    329000   307.61598      0.0092639081   5.6620428      763.20373     -77.941584      685.26214    
    330000   285.14902      0.0092639081   0.3142121      707.46259     -77.521343      629.94124    
    331000   297.11657      0.0092639081  -7.2281146      737.15441     -78.739107      658.4153     
    332000   312.9421       0.0092639081   1.0513979      776.41797     -74.686536      701.73143    
    333000   302.07892      0.0092639081   9.144916       749.46613     -73.211775      676.25436    
    334000   300.14838      0.0092639081   6.5037684      744.67641     -72.719127      671.95728    
    335000   296.44125      0.0092639081   6.2646376      735.4789      -78.280873      657.19803    
    336000   301.02904      0.0092639081  -1.4784123      746.86134     -76.886719      669.97462    
    337000   314.97549      0.0092639081   0.87316328     781.46287     -77.101423      704.36145    
    338000   312.233        0.0092639081   5.5982407      774.65868     -73.502578      701.15611    
    339000   299.43053      0.0092639081   6.3313547      742.8954      -76.927098      665.9683     
    340000   283.20222      0.0092639081   1.1958857      702.63251     -77.568831      625.06368    
    341000   308.12289      0.0092639081  -5.0607203      764.46139     -79.520603      684.94079    
    342000   315.33643      0.0092639081   4.5427784      782.35838     -77.488605      704.86978    
    343000   291.68129      0.0092639081   5.5680465      723.66933     -76.274774      647.39455    
    344000   280.91455      0.0092639081   1.4332983      696.95673     -75.377606      621.57913    
    345000   305.24673      0.0092639081   0.8594307      757.32555     -74.066224      683.25933    
    346000   309.00161      0.0092639081   6.9109182      766.64152     -78.29008       688.35144    
    347000   299.44684      0.0092639081   6.6840744      742.93587     -79.482048      663.45383    
    348000   286.04076      0.0092639081   4.8988015      709.67502     -79.868307      629.80671    
    349000   291.16069      0.0092639081  -5.2932937      722.37769     -75.356935      647.02075    
    350000   310.94411      0.0092639081   3.0421724      771.46091     -75.235758      696.22515    
    351000   310.50914      0.0092639081   9.7695163      770.38173     -71.878143      698.50358    
    352000   291.71448      0.0092639081   6.4380987      723.75167     -74.08334       649.66833    
    353000   286.77546      0.0092639081   3.1435995      711.49782     -75.850534      635.64729    
    354000   301.13215      0.0092639081   3.8307027      747.11717     -72.799157      674.31802    
    355000   302.38795      0.0092639081   7.5722296      750.23283     -74.150444      676.08239    
    356000   293.44071      0.0092639081   6.9367806      728.0345      -71.488         656.5465     
    357000   296.33004      0.0092639081   5.1823525      735.20301     -77.782261      657.42075    
    358000   310.48786      0.0092639081  -3.3386434      770.32894     -80.986606      689.34233    
    359000   302.49027      0.0092639081   7.2039974      750.48669     -76.297605      674.18909    
    360000   295.46673      0.0092639081   5.3167198      733.06111     -75.213061      657.84805    
    361000   300.65644      0.0092639081   1.4939774      745.93691     -72.616069      673.32084    
    362000   295.00693      0.0092639081   0.47405935     731.92032     -75.22317       656.69715    
    363000   314.33972      0.0092639081   2.4944057      779.88551     -79.295796      700.58972    
    364000   307.95676      0.0092639081   11.768132      764.04921     -75.021512      689.0277     
    365000   291.90507      0.0092639081   3.7571374      724.22451     -78.629166      645.59535    
    366000   306.33889      0.0092639081   3.2963481      760.03522     -81.791792      678.24343    
    367000   302.45688      0.0092639081   6.0269695      750.40384     -72.600664      677.80318    
    368000   303.66421      0.0092639081   4.533307       753.39927     -75.697521      677.70175    
    369000   305.57249      0.0092639081   5.0863019      758.13377     -76.406135      681.72764    
    370000   298.68077      0.0092639081   4.5986017      741.03521     -75.591693      665.44352    
    371000   297.84585      0.0092639081   4.8147784      738.96377     -78.191465      660.77231    
    372000   313.31621      0.0092639081   5.0123918      777.34616     -70.239607      707.10655    
    373000   317.51549      0.0092639081   4.8816174      787.76469     -66.604399      721.16029    
    374000   293.39161      0.0092639081   5.0072848      727.91268     -69.242558      658.67012    
    375000   292.87218      0.0092639081   6.7808723      726.62395     -69.34273       657.28122    
    376000   310.49564      0.0092639081   6.4451272      770.34825     -65.102686      705.24556    
    377000   306.91761      0.0092639081   4.6923491      761.47104     -72.486112      688.98493    
    378000   289.82807      0.0092639081   4.5115651      719.07144     -65.789405      653.28204    
    379000   299.70436      0.0092639081   5.7856519      743.57477     -67.269404      676.30536    
    380000   304.97552      0.0092639081   4.3073662      756.65266     -66.679737      689.97292    
    381000   305.5077       0.0092639081   5.0553478      757.97303     -67.301083      690.67195    
    382000   304.34353      0.0092639081   4.9559534      755.08468     -64.678185      690.40649    
    383000   298.18492      0.0092639081   3.7368837      739.805       -61.542732      678.26227    
    384000   304.6715       0.0092639081   4.7369919      755.89839     -66.051937      689.84646    
    385000   291.57487      0.0092639081   4.129492       723.40529     -62.694357      660.71094    
    386000   289.4221       0.0092639081   5.1941667      718.06421     -61.264514      656.7997     
    387000   308.33647      0.0092639081   5.4078824      764.99127     -67.311064      697.68021    
    388000   309.16008      0.0092639081   3.3121167      767.03469     -67.705112      699.32957    
    389000   286.15697      0.0092639081   3.5321939      709.96334     -62.653237      647.3101     
    390000   307.07206      0.0092639081   7.3161048      761.85425     -62.291545      699.5627     
    391000   318.2398       0.0092639081   7.5874572      789.56172     -62.790112      726.7716     
    392000   289.17447      0.0092639081   4.3033991      717.44983     -65.8049        651.64493    
    393000   294.0074       0.0092639081   6.3614012      729.44047     -68.871634      660.56884    
    394000   304.82711      0.0092639081   5.797424       756.28446     -63.070764      693.21369    
    395000   309.05526      0.0092639081   3.4433486      766.77462     -71.817054      694.95757    
    396000   278.92631      0.0092639081   5.7679948      692.02387     -67.548074      624.47579    
    397000   308.6331       0.0092639081   6.8681086      765.72724     -66.545087      699.18215    
    398000   310.2026       0.0092639081   3.4592752      769.6212      -65.922556      703.69864    
    399000   300.98961      0.0092639081   4.8897082      746.76352     -67.058159      679.70536    
    400000   292.52314      0.0092639081   3.179221       725.75798     -68.290766      657.46722    
    401000   281.07043      0.0092639081   4.7230407      697.34348     -73.645977      623.6975     
    402000   306.89025      0.0092639081   6.6703946      761.40316     -63.589745      697.81342    
    403000   319.07087      0.0092639081   0.63684043     791.62363     -62.692067      728.93156    
    404000   287.79717      0.0092639081   4.8433275      714.03272     -64.612436      649.42028    
    405000   298.81624      0.0092639081   4.7919031      741.37133     -62.222698      679.14863    
    406000   312.32462      0.0092639081   5.9058712      774.88598     -64.772353      710.11363    
    407000   300.24179      0.0092639081   6.4081251      744.90815     -66.752981      678.15516    
    408000   309.90707      0.0092639081   6.2002469      768.88798     -59.92148       708.9665     
    409000   293.03326      0.0092639081   6.0176981      727.0236      -58.688025      668.33557    
    410000   304.96895      0.0092639081   2.5869384      756.63636     -61.631503      695.00486    
    411000   306.01594      0.0092639081   5.1691547      759.23398     -60.08577       699.14821    
    412000   300.7968       0.0092639081   6.4779818      746.28516     -52.345895      693.93927    
    413000   295.01045      0.0092639081   6.9169918      731.92907     -57.904346      674.02472    
    414000   298.91876      0.0092639081   4.5466616      741.62569     -59.073966      682.55173    
    415000   303.12867      0.0092639081   2.2409378      752.07058     -58.948183      693.1224     
    416000   312.85278      0.0092639081   6.2219727      776.19637     -59.467985      716.72838    
    417000   295.83502      0.0092639081   6.5380685      733.97483     -63.587019      670.38781    
    418000   304.18809      0.0092639081   4.8512255      754.69904     -56.972054      697.72699    
    419000   292.17246      0.0092639081   4.5122601      724.88792     -55.507098      669.38082    
    420000   314.86119      0.0092639081   5.9765335      781.17928     -57.078419      724.10086    
    421000   322.4804       0.0092639081   5.2922875      800.08275     -62.701087      737.38167    
    422000   302.17653      0.0092639081   4.2291615      749.7083      -61.091684      688.61661    
    423000   280.98141      0.0092639081   4.1147162      697.12263     -59.073382      638.04924    
    424000   298.10526      0.0092639081   5.3826655      739.60737     -57.170311      682.43705    
    425000   308.95929      0.0092639081   4.9560473      766.53651     -60.985054      705.55146    
    426000   309.72206      0.0092639081   5.0796483      768.42897     -59.508494      708.92047    
    427000   297.42381      0.0092639081   4.4574162      737.91667     -61.800836      676.11583    
    428000   288.95821      0.0092639081   4.8127229      716.91328     -58.044171      658.8691     
    429000   307.36594      0.0092639081   1.6452934      762.58336     -59.595621      702.98774    
    430000   307.91236      0.0092639081   6.9311312      763.93904     -57.844079      706.09496    
    431000   297.41709      0.0092639081   5.6384896      737.89999     -59.601773      678.29821    
    432000   299.85386      0.0092639081   3.7267552      743.9457      -62.638984      681.30671    
    433000   312.5707       0.0092639081   1.7793567      775.49652     -62.43495       713.06157    
    434000   296.6378       0.0092639081   15.471052      735.96656     -57.769452      678.19711    
    435000   291.28239      0.0092639081   9.3853834      722.67964     -58.185103      664.49453    
    436000   305.62972      0.0092639081   2.5932549      758.27575     -60.378434      697.89731    
    437000   302.53919      0.0092639081   1.3841307      750.60807     -60.210306      690.39776    
    438000   300.95064      0.0092639081   6.4554456      746.66684     -55.865141      690.8017     
    439000   310.13604      0.0092639081   8.5435386      769.45607     -53.186859      716.26921    
    440000   305.39912      0.0092639081   11.394954      757.70364     -59.534134      698.16951    
    441000   292.94769      0.0092639081   3.2554271      726.8113      -54.129915      672.68139    
    442000   290.33409      0.0092639081   4.6788877      720.32689     -57.962898      662.36399    
    443000   313.26143      0.0092639081   4.6699733      777.21023     -55.657166      721.55307    
    444000   299.95774      0.0092639081   15.791969      744.20342     -49.050635      695.15279    
    445000   288.95777      0.0092639081   5.0567564      716.91218     -61.418049      655.49413    
    446000   303.24507      0.0092639081  -0.37240307     752.35938     -57.592217      694.76717    
    447000   308.86431      0.0092639081   5.9852771      766.30087     -57.221753      709.07912    
    448000   293.88135      0.0092639081   9.8864574      729.12773     -55.252983      673.87475    
    449000   277.22781      0.0092639081   7.2467729      687.80984     -55.715223      632.09461    
    450000   302.4389       0.0092639081   0.33759099     750.35925     -56.459213      693.90004    
    451000   305.30265      0.0092639081   5.9619202      757.46429     -50.556222      706.90807    
    452000   308.92327      0.0092639081   7.7113036      766.44715     -50.850658      715.59649    
    453000   296.48084      0.0092639081   9.1472093      735.57714     -51.238244      684.33889    
    454000   292.84858      0.0092639081   7.3638338      726.5654      -49.191274      677.37413    
    455000   298.83631      0.0092639081   1.729006       741.42113     -45.964488      695.45664    
    456000   300.95302      0.0092639081   3.8803124      746.67273     -50.792019      695.88071    
    457000   301.71132      0.0092639081   5.1626277      748.55409     -50.910083      697.64401    
    458000   299.00982      0.0092639081   8.5104789      741.8516      -49.920889      691.93071    
    459000   298.50478      0.0092639081   4.4119918      740.59859     -48.85701       691.74158    
    460000   299.39581      0.0092639081   2.8022586      742.80927     -50.686324      692.12294    
    461000   300.91065      0.0092639081   4.727898       746.56761     -45.66004       700.90757    
    462000   304.51551      0.0092639081   4.7102076      755.51136     -49.146201      706.36516    
    463000   297.10213      0.0092639081   5.8888677      737.11858     -45.119804      691.99878    
    464000   283.47961      0.0092639081   4.5829522      703.32073     -43.5565        659.76423    
    465000   302.80784      0.0092639081   4.8905381      751.2746      -41.206433      710.06816    
    466000   308.73139      0.0092639081   4.5221058      765.9711      -43.682948      722.28815    
    467000   290.51619      0.0092639081   3.5878574      720.77868     -44.41217       676.36651    
    468000   300.34715      0.0092639081   5.6765239      745.16956     -42.842997      702.32657    
    469000   305.70108      0.0092639081   5.8531902      758.4528      -49.228764      709.22404    
    470000   311.3909       0.0092639081   4.7871774      772.5694      -44.025145      728.54426    
    471000   300.59313      0.0092639081   3.5724151      745.77985     -45.824391      699.95546    
    472000   285.35907      0.0092639081   4.8312424      707.98372     -43.835901      664.14782    
    473000   296.10139      0.0092639081   3.884787       734.63572     -42.810636      691.82508    
    474000   298.82829      0.0092639081   4.77034        741.40123     -41.416155      699.98507    
    475000   301.74231      0.0092639081   5.0132739      748.63099     -44.522011      704.10898    
    476000   293.69824      0.0092639081   4.8881522      728.67343     -45.678399      682.99503    
    477000   301.20791      0.0092639081   3.8728281      747.30513     -43.4432        703.86193    
    478000   299.95919      0.0092639081   2.045049       744.20701     -43.774005      700.43301    
    479000   303.57958      0.0092639081   3.7905957      753.1893      -43.055116      710.13419    
    480000   297.99713      0.0092639081   12.307739      739.3391      -44.700442      694.63866    
    481000   304.41234      0.0092639081   0.91163527     755.25541     -43.820552      711.43486    
    482000   310.99447      0.0092639081   13.272603      771.58585     -42.08623       729.49962    
    483000   291.74139      0.0092639081   5.7529433      723.81844     -43.646789      680.17165    
    484000   297.56205      0.0092639081   5.4284455      738.25965     -39.916329      698.34332    
    485000   297.26698      0.0092639081   3.7259513      737.52757     -39.265004      698.26256    
    486000   314.45289      0.0092639081  -3.2774126      780.16628     -39.237314      740.92897    
    487000   302.1552       0.0092639081   5.7035196      749.65538     -38.617987      711.03739    
    488000   304.81972      0.0092639081   8.8007904      756.26612     -36.551197      719.71493    
    489000   297.5255       0.0092639081   4.6825032      738.16898     -35.98398       702.185      
    490000   298.90626      0.0092639081  -8.8002093      741.59466     -37.38648       704.20818    
    491000   303.83326      0.0092639081   3.04324        753.81868     -40.878805      712.93988    
    492000   307.1364       0.0092639081   9.0198938      762.01387     -38.383365      723.6305     
    493000   300.58454      0.0092639081   5.2184314      745.75852     -35.178641      710.57988    
    494000   299.90567      0.0092639081   0.20006485     744.07423     -34.112597      709.96164    
    495000   291.35163      0.0092639081   10.035182      722.85142     -35.262756      687.58867    
    496000   293.81895      0.0092639081   5.9579713      728.97291     -37.582893      691.39002    
    497000   299.85138      0.0092639081   4.3343317      743.93954     -44.569394      699.37015    
    498000   309.24989      0.0092639081   1.661527       767.25749     -44.27392       722.98357    
    499000   307.79719      0.0092639081   3.1684935      763.6533      -42.620892      721.03241    
    500000   284.43968      0.0092639081   4.9870052      705.70269     -41.383066      664.31962    
    501000   294.99133      0.0092639081   2.4763288      731.88162     -36.715377      695.16624    
    502000   310.28218      0.0092639081   2.3661914      769.81865     -39.84855       729.9701     
    503000   305.99913      0.0092639081   5.1408903      759.19228     -38.98011       720.21217    
    504000   281.58082      0.0092639081   5.3458527      698.60979     -40.018346      658.59144    
    505000   288.23699      0.0092639081   5.9787511      715.12391     -43.622815      671.5011     
    506000   305.29779      0.0092639081   5.2239644      757.45223     -43.71061       713.74161    
    507000   304.78086      0.0092639081   4.4037173      756.16971     -38.392514      717.77719    
    508000   296.46062      0.0092639081   5.0859379      735.52697     -41.089357      694.43761    
    509000   273.21746      0.0092639081   4.818014       677.86005     -34.763384      643.09667    
    510000   290.08663      0.0092639081   4.9692649      719.71293     -39.892896      679.82003    
    511000   307.63927      0.0092639081   3.7692931      763.26151     -39.008024      724.25349    
    512000   302.56565      0.0092639081   5.0349205      750.67372     -43.744712      706.92901    
    513000   294.67119      0.0092639081   5.1417557      731.08734     -40.926418      690.16092    
    514000   305.09         0.0092639081   5.141761       756.93669     -41.498305      715.43839    
    515000   298.99919      0.0092639081   4.551042       741.82522     -41.23053       700.59469    
    516000   302.8453       0.0092639081   5.2669904      751.36754     -34.716647      716.65089    
    517000   317.77229      0.0092639081   5.6114559      788.40182     -35.529773      752.87205    
    518000   301.07352      0.0092639081   7.0584487      746.9717      -40.276867      706.69483    
    519000   292.61512      0.0092639081   4.8050199      725.98617     -38.486696      687.49948    
    520000   305.94348      0.0092639081   3.5865353      759.0542      -40.979408      718.07479    
    521000   314.28067      0.0092639081   5.1980374      779.73901     -45.943626      733.79539    
    522000   304.40751      0.0092639081   5.0255892      755.24343     -42.444491      712.79894    
    523000   287.13336      0.0092639081   4.9271816      712.38578     -41.923114      670.46266    
    524000   298.88899      0.0092639081   5.8848742      741.55182     -41.266568      700.28526    
    525000   312.38356      0.0092639081   6.7038383      775.03222     -41.084373      733.94785    
    526000   311.32521      0.0092639081   5.0877193      772.40644     -39.253848      733.15259    
    527000   288.73262      0.0092639081   3.3436422      716.35358     -38.271349      678.08223    
    528000   292.16474      0.0092639081   5.0485159      724.86878     -37.156742      687.71204    
    529000   310.99902      0.0092639081   6.6371855      771.59713     -37.716639      733.88049    
    530000   298.13471      0.0092639081   5.1215279      739.68044     -39.689411      699.99103    
    531000   289.73809      0.0092639081   4.7972081      718.84818     -43.121462      675.72671    
    532000   297.66989      0.0092639081   4.7490462      738.52719     -35.404365      703.12283    
    533000   302.46262      0.0092639081   5.4168778      750.41811     -39.36917       711.04894    
    534000   308.67233      0.0092639081   6.2937598      765.82457     -42.763913      723.06066    
    535000   297.82849      0.0092639081   4.9872015      738.92069     -43.655126      695.26557    
    536000   288.46908      0.0092639081   1.8762446      715.69975     -41.462005      674.23774    
    537000   296.79076      0.0092639081   6.9189735      736.34605     -39.710057      696.63599    
    538000   305.66714      0.0092639081   3.8430633      758.36861     -34.513918      723.85469    
    539000   292.39263      0.0092639081   1.4982865      725.43418     -36.756032      688.67815    
    540000   289.55082      0.0092639081   2.4431251      718.38356     -38.203253      680.1803     
    541000   309.7552       0.0092639081   6.6474321      768.51119     -38.204914      730.30628    
    542000   316.66623      0.0092639081   2.4792449      785.65764     -38.249289      747.40835    
    543000   294.06417      0.0092639081   1.8182523      729.58132     -37.526464      692.05486    
    544000   305.80528      0.0092639081   7.9526129      758.71133     -42.659234      716.0521     
    545000   306.3315       0.0092639081   2.8657859      760.01689     -43.370701      716.64619    
    546000   300.99798      0.0092639081  -1.0767356      746.7843      -40.863241      705.92105    
    547000   292.79373      0.0092639081   3.3486688      726.42931     -37.990069      688.43924    
    548000   313.54608      0.0092639081   14.056888      777.91646     -38.391418      739.52504    
    549000   295.75466      0.0092639081   0.41390764     733.77547     -36.6436        697.13187    
    550000   285.95261      0.0092639081   8.8148874      709.4563      -36.712187      672.74411    
    551000   302.01992      0.0092639081   6.0226198      749.31976     -37.268639      712.05112    
    552000   304.93114      0.0092639081   6.3348207      756.54256     -35.548915      720.99365    
    553000   305.03007      0.0092639081  -6.8075989      756.78801     -38.063404      718.7246     
    554000   295.56425      0.0092639081   4.2401408      733.30305     -35.890236      697.41281    
    555000   292.7788       0.0092639081   6.1885469      726.39227     -33.257878      693.1344     
    556000   307.92365      0.0092639081   5.4672435      763.96707     -37.777184      726.18988    
    557000   317.11544      0.0092639081   3.5945595      786.77214     -36.300373      750.47177    
    558000   291.34209      0.0092639081  -1.3133904      722.82776     -36.463787      686.36398    
    559000   286.40718      0.0092639081   7.0541392      710.58411     -37.07418       673.50993    
    560000   300.98339      0.0092639081   9.8646934      746.74809     -36.189008      710.55909    
    561000   313.46125      0.0092639081   2.6517412      777.706       -32.286903      745.41909    
    562000   297.8315       0.0092639081   4.6850865      738.92817     -31.162222      707.76595    
    563000   297.39234      0.0092639081   12.169905      737.8386      -32.390832      705.44776    
    564000   315.91845      0.0092639081   3.7101208      783.80239     -33.288624      750.51377    
    565000   304.67665      0.0092639081   4.5884766      755.91116     -32.444573      723.46658    
    566000   295.75534      0.0092639081   3.8720424      733.77714     -34.720012      699.05713    
    567000   275.37685      0.0092639081   2.7469693      683.21757     -34.943545      648.27402    
    568000   296.20868      0.0092639081   10.925075      734.9019      -33.289872      701.61203    
    569000   314.25337      0.0092639081   3.7584462      779.67128     -32.969438      746.70184    
    570000   293.95578      0.0092639081   0.42950815     729.31239     -35.476945      693.83544    
    571000   293.06441      0.0092639081   4.8248617      727.10089     -34.007866      693.09302    
    572000   301.18057      0.0092639081   9.6459239      747.23729     -39.208663      708.02863    
    573000   302.7388       0.0092639081   3.8924974      751.10332     -36.368151      714.73516    
    574000   290.77904      0.0092639081   4.4054324      721.43082     -30.871732      690.55909    
    575000   309.47806      0.0092639081   5.3810482      767.8236      -34.672362      733.15124    
    576000   309.25469      0.0092639081   5.4805507      767.2694      -33.547513      733.72189    
    577000   293.73455      0.0092639081   4.5386803      728.76353     -34.141581      694.62195    
    578000   287.00117      0.0092639081   4.8206846      712.05781     -33.659158      678.39865    
    579000   308.26263      0.0092639081   6.451141       764.80807     -34.072133      730.73594    
    580000   321.74048      0.0092639081   5.9095911      798.247       -30.04729       768.19971    
    581000   303.79018      0.0092639081   2.2942818      753.7118      -29.291215      724.42059    
    582000   293.8129       0.0092639081   2.4563595      728.95791     -31.654199      697.30371    
    583000   288.91202      0.0092639081   6.4330178      716.79867     -32.182891      684.61578    
    584000   299.79285      0.0092639081   9.7479556      743.79432     -32.654445      711.13987    
    585000   308.89701      0.0092639081   6.5208295      766.382       -32.44413       733.93787    
    586000   299.13997      0.0092639081   2.5773441      742.17451     -29.948692      712.22582    
    587000   294.92111      0.0092639081   0.62863535     731.70739     -34.38749       697.3199     
    588000   298.82837      0.0092639081   3.1826881      741.40142     -31.791839      709.60958    
    589000   296.21003      0.0092639081   5.347067       734.90524     -33.159218      701.74602    
    590000   295.64952      0.0092639081   5.3871232      733.5146      -35.815624      697.69897    
    591000   295.79959      0.0092639081   5.2782559      733.88695     -32.54533       701.34162    
    592000   307.82384      0.0092639081  -0.058305504    763.71942     -33.285765      730.43366    
    593000   292.99554      0.0092639081   6.4179021      726.93001     -33.323272      693.60674    
    594000   291.81644      0.0092639081   10.178631      724.00463     -29.728943      694.27568    
    595000   310.78129      0.0092639081   8.1782736      771.05695     -33.57467       737.48228    
    596000   315.71044      0.0092639081   4.3989616      783.28632     -31.334483      751.95183    
    597000   287.23159      0.0092639081  -0.44089918     712.62948     -33.12274       679.50674    
    598000   283.70355      0.0092639081   2.9069114      703.87632     -28.600781      675.27553    
    599000   300.32783      0.0092639081   6.206776       745.12164     -30.405062      714.71657    
    600000   323.73668      0.0092639081   4.9724885      803.19962     -26.50838       776.69124    
    601000   291.74451      0.0092639081   1.296877       723.82618     -31.057904      692.76827    
    602000   297.53446      0.0092639081   4.9259706      738.19119     -29.593676      708.59751    
    603000   303.94071      0.0092639081   5.3443439      754.08527     -32.038811      722.04646    
    604000   294.7593       0.0092639081   6.468473       731.30595     -32.903079      698.40287    
    605000   310.67452      0.0092639081   5.2440317      770.79204     -31.083314      739.70872    
    606000   310.66888      0.0092639081   5.6383607      770.77806     -32.956221      737.82184    
    607000   283.70997      0.0092639081   4.9502313      703.89226     -29.492924      674.39934    
    608000   296.44631      0.0092639081  -0.0074274842   735.49148     -34.739969      700.75151    
    609000   309.8297       0.0092639081   3.0704573      768.69603     -30.317577      738.37845    
    610000   308.22426      0.0092639081   7.6630911      764.71289     -32.379464      732.33342    
    611000   293.01796      0.0092639081   7.5753538      726.98563     -34.806813      692.17882    
    612000   281.39596      0.0092639081   2.4972828      698.15114     -32.54985       665.60129    
    613000   282.75351      0.0092639081   3.1027657      701.51925     -32.809989      668.70926    
    614000   305.67213      0.0092639081   4.314411       758.38099     -33.348465      725.03252    
    615000   320.13156      0.0092639081   5.4936021      794.25522     -34.162373      760.09285    
    616000   294.57756      0.0092639081   5.2150853      730.85504     -36.498303      694.35673    
    617000   283.04862      0.0092639081   4.8363087      702.25143     -35.526289      666.72514    
    618000   307.20968      0.0092639081   5.2764895      762.19569     -30.927274      731.26842    
    619000   306.97439      0.0092639081   6.1195447      761.61193     -31.851882      729.76004    
    620000   287.36321      0.0092639081   4.8223209      712.95604     -29.583295      683.37275    
    621000   284.00093      0.0092639081   5.0683382      704.61415     -28.839867      675.77428    
    622000   304.76921      0.0092639081   5.0924564      756.14081     -32.030317      724.11049    
    623000   314.84567      0.0092639081   5.2015611      781.14078     -30.952595      750.18818    
    624000   307.53237      0.0092639081   2.7113994      762.99629     -27.814318      735.18197    
    625000   294.8453       0.0092639081   5.1902343      731.51931     -26.029959      705.48936    
    626000   307.01067      0.0092639081   5.8637947      761.70193     -29.741627      731.96031    
    627000   298.22065      0.0092639081   5.2327929      739.89365     -30.966414      708.92724    
    628000   292.79258      0.0092639081   4.7714262      726.42647     -30.441495      695.98498    
    629000   292.72665      0.0092639081   5.4300209      726.26288     -25.98943       700.27345    
    630000   311.4883       0.0092639081   5.5998081      772.81106     -24.97407       747.83699    
    631000   305.03414      0.0092639081   4.3447148      756.79811     -28.671765      728.12635    
    632000   285.22361      0.0092639081   4.3780208      707.64765     -29.616234      678.03141    
    633000   302.17489      0.0092639081   5.796443       749.70424     -29.136013      720.56822    
    634000   314.23625      0.0092639081   7.2585895      779.62879     -27.977093      751.6517     
    635000   314.11677      0.0092639081   4.5879616      779.33237     -27.813786      751.51859    
    636000   292.51515      0.0092639081  -0.26060081     725.73815     -27.242399      698.49575    
    637000   293.23174      0.0092639081   6.3522269      727.51604     -31.567815      695.94823    
    638000   302.31829      0.0092639081   5.3936583      750.06002     -29.811738      720.24828    
    639000   297.55374      0.0092639081   5.4712452      738.23902     -30.445103      707.79392    
    640000   303.1515       0.0092639081   4.5540525      752.12723     -26.283094      725.84413    
    641000   304.10477      0.0092639081   4.2210049      754.49231     -28.907051      725.58526    
    642000   299.64716      0.0092639081   6.6989247      743.43286     -28.276961      715.1559     
    643000   303.39682      0.0092639081   3.2403679      752.73587     -25.843954      726.89192    
    644000   297.58729      0.0092639081   3.5866128      738.32226     -25.563619      712.75864    
    645000   294.17238      0.0092639081   9.9710062      729.84979     -28.916668      700.93312    
    646000   287.90583      0.0092639081   8.8497584      714.30229     -27.535999      686.76629    
    647000   307.04639      0.0092639081   6.2759836      761.79056     -26.584521      735.20604    
    648000   290.29037      0.0092639081   5.0817778      720.2184      -31.956866      688.26153    
    649000   301.24133      0.0092639081   3.4041695      747.38805     -25.349951      722.0381     
    650000   290.50767      0.0092639081   6.5732147      720.75755     -25.095703      695.66185    
    651000   291.49073      0.0092639081   8.992576       723.19654     -23.525541      699.671      
    652000   303.84439      0.0092639081   4.6200446      753.8463      -27.099384      726.74691    
    653000   282.50888      0.0092639081   3.4653166      700.91232     -25.674326      675.23799    
    654000   301.43366      0.0092639081   6.2155202      747.86522     -22.683683      725.18154    
    655000   317.5009       0.0092639081   4.7260489      787.72848     -23.114949      764.61354    
    656000   296.78676      0.0092639081   4.5886025      736.33614     -24.184077      712.15206    
    657000   285.66536      0.0092639081   7.1919724      708.74363     -22.458508      686.28512    
    658000   311.85595      0.0092639081   5.3145547      773.72322     -21.144839      752.57838    
    659000   299.83596      0.0092639081   4.1562409      743.90127     -20.861852      723.03942    
    660000   275.5219       0.0092639081   5.630381       683.57743     -24.11351       659.46392    
    661000   318.12223      0.0092639081   7.6282083      789.27002     -24.221193      765.04883    
    662000   307.52046      0.0092639081   5.8542396      762.96674     -22.092788      740.87395    
    663000   300.71241      0.0092639081   2.9371117      746.07579     -22.921793      723.154      
    664000   295.16489      0.0092639081   4.536911       732.31224     -21.629574      710.68266    
    665000   299.42515      0.0092639081   5.0713207      742.88206     -22.555247      720.32681    
    666000   295.94458      0.0092639081   5.7190001      734.24666     -22.964678      711.28198    
    667000   304.4548       0.0092639081   5.4608413      755.36076     -21.803756      733.557      
    668000   304.52347      0.0092639081   4.4943491      755.53112     -25.569463      729.96166    
    669000   290.1421       0.0092639081   0.68048659     719.85055     -25.237462      694.61309    
    670000   294.05001      0.0092639081   6.7539916      729.54618     -22.467531      707.07865    
    671000   301.1157       0.0092639081   5.6670411      747.07635     -22.57735       724.499      
    672000   304.8006       0.0092639081   4.9138398      756.2187      -20.834226      735.38447    
    673000   304.67422      0.0092639081   4.6075635      755.90513     -19.036305      736.86883    
    674000   300.31109      0.0092639081   5.9350598      745.08009     -21.927612      723.15248    
    675000   306.79092      0.0092639081   4.9334153      761.15672     -20.476395      740.68033    
    676000   296.30609      0.0092639081   2.4966088      735.14357     -18.492379      716.65119    
    677000   301.4001       0.0092639081   5.8299557      747.78196     -18.215387      729.56657    
    678000   306.43551      0.0092639081   5.2566207      760.27495     -16.736288      743.53867    
    679000   299.86477      0.0092639081   4.1695805      743.97277     -18.723926      725.24884    
    680000   301.66894      0.0092639081   5.4662823      748.44896     -20.898614      727.55034    
    681000   290.20986      0.0092639081   4.8876222      720.01867     -19.924124      700.09455    
    682000   295.17945      0.0092639081   3.7289873      732.34836     -20.934313      711.41405    
    683000   288.06889      0.0092639081   5.0335132      714.70686     -18.37946       696.3274     
    684000   299.71813      0.0092639081   6.6708228      743.60895     -20.233021      723.37593    
    685000   299.16827      0.0092639081   5.103217       742.24471     -18.899732      723.34498    
    686000   300.37055      0.0092639081   4.4768602      745.22762     -23.076068      722.15155    
    687000   294.3126       0.0092639081   4.1994135      730.19768     -19.660599      710.53708    
    688000   310.98901      0.0092639081   7.298914       771.5723      -20.031085      751.54121    
    689000   306.17344      0.0092639081   5.2364701      759.62475     -19.695555      739.92919    
    690000   299.94226      0.0092639081   4.8058886      744.16502     -25.674898      718.49012    
    691000   282.94455      0.0092639081   4.9555841      701.99323     -23.679694      678.31353    
    692000   287.51994      0.0092639081   5.9971974      713.34489     -20.89326       692.45163    
    693000   310.67028      0.0092639081   6.3449274      770.78153     -22.768111      748.01341    
    694000   303.0929       0.0092639081   4.4087745      751.98184     -21.758484      730.22336    
    695000   284.20205      0.0092639081   5.7468068      705.11311     -18.982835      686.13028    
    696000   304.56157      0.0092639081   7.025491       755.62565     -22.802175      732.82347    
    697000   306.2539       0.0092639081   4.2124418      759.82437     -25.688957      734.13541    
    698000   302.43516      0.0092639081   1.6538868      750.34997     -25.330463      725.0195     
    699000   300.57807      0.0092639081   5.193314       745.74247     -26.716821      719.02565    
    700000   296.28613      0.0092639081   10.642204      735.09406     -26.679737      708.41432    
    701000   306.88295      0.0092639081   7.4731971      761.38507     -26.4178        734.96727    
    702000   302.84572      0.0092639081   3.7085228      751.36857     -26.995944      724.37263    
    703000   300.00179      0.0092639081   0.41369088     744.31272     -26.606269      717.70645    
    704000   312.8673       0.0092639081   7.0796547      776.2324      -30.625605      745.6068     
    705000   300.48264      0.0092639081   6.0994064      745.50571     -30.270292      715.23541    
    706000   294.27681      0.0092639081   4.8543132      730.10888     -27.439596      702.66929    
    707000   305.52897      0.0092639081   1.3967191      758.02579     -21.950353      736.07544    
    708000   292.29245      0.0092639081   1.781306       725.18562     -24.245083      700.94054    
    709000   292.41064      0.0092639081   6.768515       725.47886     -25.682219      699.79664    
    710000   294.71982      0.0092639081   8.1647936      731.208       -25.360409      705.84759    
    711000   305.66413      0.0092639081   11.553548      758.36113     -24.642299      733.71883    
    712000   315.89138      0.0092639081  -6.4735227      783.73522     -22.763151      760.97207    
    713000   295.65341      0.0092639081   7.9975584      733.52427     -21.134229      712.39004    
    714000   301.91797      0.0092639081   7.5155785      749.0668      -22.142549      726.92425    
    715000   306.34829      0.0092639081   0.59578354     760.05855     -20.362219      739.69634    
    716000   290.54269      0.0092639081   7.8887753      720.84441     -19.962568      700.88184    
    717000   300.01833      0.0092639081   7.5435098      744.35375     -18.084978      726.26877    
    718000   299.49718      0.0092639081   6.4636647      743.06076     -20.209548      722.85121    
    719000   289.61931      0.0092639081  -2.8690103      718.55348     -18.521235      700.03225    
    720000   302.77872      0.0092639081   1.9590647      751.20236     -20.086055      731.1163     
    721000   300.57387      0.0092639081   5.1196388      745.73205     -21.359656      724.37239    
    722000   295.41777      0.0092639081   15.067577      732.93963     -20.968153      711.97148    
    723000   305.05594      0.0092639081   1.8755599      756.8522      -18.478653      738.37355    
    724000   297.12156      0.0092639081   5.7697943      737.16678     -19.029062      718.13771    
[...]
   3823000   294.66227      0.0092639081   3.4120493      731.06523     -14.327496      716.73773    
   3824000   288.97619      0.0092639081   7.1153572      716.9579      -13.737091      703.22081    
   3825000   299.07714      0.0092639081   5.4132427      742.01863     -14.680662      727.33797    
   3826000   317.02774      0.0092639081   3.971587       786.55457     -14.733662      771.8209     
   3827000   296.53923      0.0092639081   5.2851727      735.72201     -12.079372      723.64264    
   3828000   314.66197      0.0092639081   3.6192405      780.68501     -13.532769      767.15224    
   3829000   301.87256      0.0092639081   6.4536981      748.95414     -16.324369      732.62977    
   3830000   294.33637      0.0092639081   5.3899781      730.25664     -14.745213      715.51142    
   3831000   287.36407      0.0092639081   5.220705       712.95817     -9.5467618      703.41141    
   3832000   308.15326      0.0092639081   5.2254385      764.53673     -12.27584       752.26089    
   3833000   309.79065      0.0092639081   5.0260683      768.59915     -10.967568      757.63159    
   3834000   319.10717      0.0092639081   5.9420998      791.71369     -13.25734       778.45635    
   3835000   285.09797      0.0092639081   4.3370056      707.33592     -12.069374      695.26655    
   3836000   305.11577      0.0092639081   5.3776344      757.00063     -13.29291       743.70772    
   3837000   316.33942      0.0092639081   5.5593856      784.84683     -13.47569       771.37114    
   3838000   294.67557      0.0092639081   4.7494541      731.09821     -12.998459      718.09975    
   3839000   304.86556      0.0092639081   5.3651571      756.37986     -15.949985      740.42987    
   3840000   303.1021       0.0092639081   5.1302393      752.00467     -13.731283      738.27339    
   3841000   286.03252      0.0092639081   5.302914       709.65457     -6.3603604      703.29421    
   3842000   292.39549      0.0092639081   6.142353       725.44127     -15.580481      709.86079    
   3843000   305.53181      0.0092639081   5.370002       758.03284     -11.669528      746.36331    
   3844000   307.49024      0.0092639081   5.3659812      762.89176     -12.749478      750.14228    
   3845000   296.78967      0.0092639081   3.1028958      736.34335     -14.308038      722.03531    
   3846000   297.30611      0.0092639081   3.7823062      737.62466     -13.011773      724.61289    
   3847000   300.13357      0.0092639081   5.9519559      744.63967     -10.593808      734.04586    
   3848000   304.94024      0.0092639081   5.209219       756.56513     -9.5896704      746.97546    
   3849000   301.11859      0.0092639081   5.1195566      747.08351     -8.534251       738.54926    
   3850000   297.64734      0.0092639081   4.9885892      738.47127     -10.469372      728.00189    
   3851000   294.78236      0.0092639081   5.370804       731.36316     -9.9368015      721.42636    
   3852000   298.35083      0.0092639081   5.515783       740.21664     -7.4405464      732.77609    
   3853000   304.37642      0.0092639081   4.1447153      755.1663      -8.5811106      746.58519    
   3854000   307.41888      0.0092639081   5.2152632      762.71471     -7.4476876      755.26702    
   3855000   312.63719      0.0092639081   8.5439538      775.66148     -10.916147      764.74533    
   3856000   300.2863       0.0092639081   4.941876       745.01859     -10.10804       734.91055    
   3857000   293.09293      0.0092639081   4.9068706      727.17164     -11.982084      715.18955    
   3858000   312.02376      0.0092639081   6.1550548      774.13956     -12.661043      761.47851    
   3859000   307.40528      0.0092639081   5.5580622      762.68097     -12.908318      749.77265    
   3860000   300.3326       0.0092639081   5.1467881      745.13345     -16.522345      728.6111     
   3861000   294.59592      0.0092639081   3.4955868      730.90061     -16.698314      714.20229    
   3862000   296.32815      0.0092639081   7.6133743      735.19831     -12.659669      722.53864    
   3863000   315.07369      0.0092639081   4.5431257      781.70652     -12.254197      769.45232    
   3864000   290.75913      0.0092639081   4.8142026      721.38141     -11.753324      709.62809    
   3865000   291.01137      0.0092639081   6.2135365      722.00724     -10.910755      711.09648    
   3866000   318.67186      0.0092639081   6.4345213      790.63367     -13.962508      776.67116    
   3867000   306.56152      0.0092639081   4.1920449      760.58757     -16.230468      744.3571     
   3868000   284.85197      0.0092639081   4.0971333      706.72559     -17.803847      688.92174    
   3869000   307.92958      0.0092639081   5.3863021      763.98178     -16.975493      747.00628    
   3870000   307.56442      0.0092639081   5.1867801      763.07579     -13.698733      749.37706    
   3871000   290.98946      0.0092639081   3.7543064      721.95286     -14.999314      706.95355    
   3872000   285.01916      0.0092639081   7.5668356      707.1404      -19.130126      688.01028    
   3873000   297.1629       0.0092639081   9.9668302      737.26936     -17.747128      719.52223    
   3874000   314.70571      0.0092639081   7.652482       780.79353     -16.733793      764.05974    
   3875000   303.77293      0.0092639081   0.68056454     753.66902     -16.488344      737.18067    
   3876000   288.99335      0.0092639081   5.0892179      717.00046     -13.116565      703.88389    
   3877000   298.55742      0.0092639081   4.8965427      740.7292      -14.848688      725.88051    
   3878000   309.037        0.0092639081   5.5452685      766.72932     -12.030078      754.69924    
   3879000   307.6395       0.0092639081   6.732984       763.26208     -12.248379      751.0137     
   3880000   284.80187      0.0092639081   3.5122406      706.60129     -9.8299412      696.77134    
   3881000   301.34424      0.0092639081   3.0046472      747.64336     -10.096817      737.54654    
   3882000   298.93716      0.0092639081   9.5246158      741.67133     -7.9619083      733.70943    
   3883000   294.71893      0.0092639081   7.8641053      731.20579     -8.009067       723.19673    
   3884000   299.47746      0.0092639081   5.3783696      743.01183     -11.943756      731.06808    
   3885000   288.55353      0.0092639081   5.1069391      715.90927     -12.999637      702.90963    
   3886000   305.6582       0.0092639081   5.2838443      758.34642     -12.092689      746.25373    
   3887000   312.01616      0.0092639081   5.0052309      774.1207      -11.514435      762.60626    
   3888000   292.75499      0.0092639081   7.9454173      726.3332      -15.076032      711.25717    
   3889000   289.25733      0.0092639081   6.3965141      717.65542     -11.51251       706.14291    
   3890000   314.3437       0.0092639081   1.0833888      779.89539     -14.406605      765.48878    
   3891000   314.14226      0.0092639081   6.1267617      779.39561     -14.115331      765.28027    
   3892000   292.6894       0.0092639081   5.0434071      726.17046     -13.341025      712.82944    
   3893000   304.86241      0.0092639081   2.7085427      756.37203     -12.676736      743.6953     
   3894000   314.22088      0.0092639081   6.3712625      779.59066     -12.402762      767.18789    
   3895000   301.8325       0.0092639081   7.2237473      748.85475     -14.559414      734.29534    
   3896000   296.21716      0.0092639081   3.1128607      734.92294     -18.620509      716.30243    
   3897000   299.91555      0.0092639081   10.619972      744.09876     -17.267188      726.83157    
   3898000   303.1683       0.0092639081   5.1466658      752.1689      -17.768008      734.4009     
   3899000   301.91325      0.0092639081   2.2212934      749.05509     -18.685441      730.36965    
   3900000   309.34757      0.0092639081   4.7463871      767.49985     -18.393712      749.10614    
   3901000   283.65099      0.0092639081   6.7223862      703.74594     -15.484082      688.26185    
   3902000   303.01446      0.0092639081   2.5823554      751.78723     -15.575003      736.21223    
   3903000   313.14943      0.0092639081   2.2376632      776.93236     -12.714861      764.2175     
   3904000   299.22173      0.0092639081   7.1204997      742.37737     -16.250307      726.12706    
   3905000   309.19568      0.0092639081   8.2697183      767.123       -13.094718      754.02828    
   3906000   298.56097      0.0092639081   1.2555008      740.738       -14.716135      726.02186    
   3907000   306.67636      0.0092639081   1.624933       760.87251     -14.609196      746.26331    
   3908000   286.08831      0.0092639081   8.8583927      709.79297     -10.918061      698.87491    
   3909000   299.32166      0.0092639081   5.0664155      742.62529     -14.036562      728.58873    
   3910000   307.09207      0.0092639081   1.4978547      761.90388     -11.405627      750.49826    
   3911000   292.6496       0.0092639081   5.6884189      726.07174     -13.012116      713.05962    
   3912000   290.9983       0.0092639081   7.190533       721.9748      -13.09084       708.88396    
   3913000   299.16043      0.0092639081   1.8019458      742.22527     -12.809588      729.41568    
   3914000   305.53902      0.0092639081   4.573497       758.05073     -13.176936      744.87379    
   3915000   314.04866      0.0092639081   2.7840814      779.16338     -12.352814      766.81057    
   3916000   294.97529      0.0092639081   7.3015294      731.84183     -14.663421      717.17841    
   3917000   290.36086      0.0092639081   3.2347683      720.3933      -13.625256      706.76804    
   3918000   315.50727      0.0092639081   3.4765898      782.78223     -15.057716      767.72451    
   3919000   306.14         0.0092639081   6.4875967      759.54179     -10.750406      748.79138    
   3920000   295.58287      0.0092639081   4.8192924      733.34925     -17.75802       715.59123    
   3921000   290.1261       0.0092639081   4.0451392      719.81086     -15.472916      704.33794    
   3922000   314.00676      0.0092639081   4.4937002      779.05943     -15.957297      763.10214    
   3923000   306.77451      0.0092639081   5.8826249      761.11601     -17.078351      744.03766    
   3924000   298.121        0.0092639081   2.2886448      739.64642     -17.166658      722.47977    
   3925000   301.94183      0.0092639081   5.5358669      749.12601     -17.513324      731.61268    
   3926000   295.46293      0.0092639081   6.5197244      733.05167     -18.986731      714.06494    
   3927000   303.01337      0.0092639081   5.7805891      751.78452     -16.319729      735.46479    
   3928000   296.93491      0.0092639081   5.2554875      736.70369     -14.871629      721.83206    
   3929000   303.45251      0.0092639081   5.2611274      752.87404     -16.778526      736.09552    
   3930000   296.6917       0.0092639081   3.2515287      736.10028     -15.846906      720.25338    
   3931000   311.00826      0.0092639081   5.2427045      771.62006     -18.159848      753.46021    
   3932000   295.22249      0.0092639081   5.1383783      732.45512     -17.030677      715.42445    
   3933000   309.7555       0.0092639081   6.6370769      768.51193     -17.291972      751.21996    
   3934000   302.88307      0.0092639081   4.4413864      751.46125     -18.968378      732.49287    
   3935000   291.10918      0.0092639081   4.9999447      722.2499      -15.438775      706.81112    
   3936000   302.07236      0.0092639081   6.3799265      749.44985     -17.45553       731.99432    
   3937000   301.82414      0.0092639081   4.8485617      748.83401     -14.180924      734.65309    
   3938000   300.1412       0.0092639081   2.9397242      744.65859     -15.938278      728.72031    
   3939000   291.24163      0.0092639081   7.1279241      722.57852     -17.683985      704.89453    
   3940000   298.4383       0.0092639081   9.3098415      740.43365     -19.621267      720.81238    
   3941000   305.50227      0.0092639081   5.3111216      757.95955     -19.772615      738.18694    
   3942000   307.36967      0.0092639081   3.077665       762.59263     -17.429379      745.16325    
   3943000   294.8072       0.0092639081   2.769163       731.4248      -15.465383      715.95942    
   3944000   291.72731      0.0092639081   9.3656562      723.7835      -17.639497      706.14401    
   3945000   308.37971      0.0092639081   5.0438314      765.09855     -14.426394      750.67216    
   3946000   288.41054      0.0092639081   1.5034031      715.5545      -18.388756      697.16574    
   3947000   283.09721      0.0092639081   7.3879256      702.37197     -17.142054      685.22992    
   3948000   300.90398      0.0092639081   8.220756       746.55106     -16.230306      730.32076    
   3949000   306.05272      0.0092639081   7.8910372      759.32524     -18.885011      740.44023    
   3950000   303.57001      0.0092639081   5.3564313      753.16556     -12.789737      740.37582    
   3951000   300.74444      0.0092639081   3.6513565      746.15524     -16.528273      729.62697    
   3952000   311.77619      0.0092639081   2.2759855      773.52531     -17.666981      755.85833    
   3953000   286.65373      0.0092639081   7.2541404      711.1958      -17.06396       694.13184    
   3954000   293.02255      0.0092639081   6.3247562      726.99703     -15.232562      711.76447    
   3955000   303.86946      0.0092639081   5.3948147      753.9085      -16.83721       737.07129    
   3956000   322.76545      0.0092639081   3.8677076      800.78999     -16.958007      783.83198    
   3957000   292.12994      0.0092639081   2.8697291      724.78244     -14.627833      710.15461    
   3958000   292.81206      0.0092639081   6.2270531      726.4748      -14.487861      711.98693    
   3959000   310.14317      0.0092639081   5.8842332      769.47376     -12.31322       757.16054    
   3960000   305.91337      0.0092639081   3.7664725      758.97951     -11.842093      747.13741    
   3961000   271.02025      0.0092639081   4.3447163      672.4087      -11.523119      660.88559    
   3962000   297.47131      0.0092639081   5.8091252      738.03451     -12.467713      725.5668     
   3963000   311.63164      0.0092639081   5.340318       773.16668     -12.539831      760.62685    
   3964000   297.47546      0.0092639081   0.85684962     738.04482     -15.6653        722.37952    
   3965000   279.39298      0.0092639081   5.0480972      693.18169     -10.547951      682.63374    
   3966000   301.98901      0.0092639081   5.4692693      749.24306     -12.186465      737.05659    
   3967000   310.65655      0.0092639081   3.8536573      770.74747     -10.253655      760.49382    
   3968000   290.43922      0.0092639081   4.3970519      720.58772     -11.358129      709.22959    
   3969000   292.39658      0.0092639081   5.2002779      725.44397     -14.348008      711.09596    
   3970000   314.86728      0.0092639081   5.2883957      781.19441     -10.776699      770.41771    
   3971000   302.38821      0.0092639081   7.9754693      750.23348     -12.494245      737.73924    
   3972000   294.26232      0.0092639081   4.5319691      730.07292     -14.254946      715.81797    
   3973000   312.47285      0.0092639081   4.6026962      775.25375     -15.261334      759.99242    
   3974000   302.14335      0.0092639081   3.2502878      749.62599     -9.8271071      739.79888    
   3975000   307.68726      0.0092639081   11.009382      763.38057     -14.799609      748.58096    
   3976000   296.15733      0.0092639081   4.9118415      734.77449     -15.755659      719.01883    
   3977000   319.9537       0.0092639081   4.1697049      793.81396     -14.51874       779.29522    
   3978000   297.57766      0.0092639081   7.2076423      738.29837     -13.10933       725.18904    
   3979000   282.07984      0.0092639081   5.0676768      699.84787     -14.095885      685.75198    
   3980000   298.98623      0.0092639081   4.6462414      741.79308     -12.614369      729.17871    
   3981000   311.51514      0.0092639081   5.2442931      772.87766     -13.41494       759.46272    
   3982000   290.19834      0.0092639081   5.6867226      719.99008     -12.314015      707.67606    
   3983000   290.23293      0.0092639081   5.1761227      720.07591     -12.33436       707.74155    
   3984000   303.45186      0.0092639081   4.4844083      752.87243     -11.014089      741.85834    
   3985000   304.12289      0.0092639081   1.282305       754.53727     -11.24763       743.28964    
   3986000   301.46068      0.0092639081   5.9036136      747.93226     -11.39716       736.5351     
   3987000   298.0418       0.0092639081   4.5494586      739.44992     -10.393552      729.05637    
   3988000   305.17259      0.0092639081   5.3219369      757.14161     -15.92637       741.21524    
   3989000   303.34033      0.0092639081   4.7737658      752.59571     -14.786926      737.80878    
   3990000   307.737        0.0092639081   5.4529587      763.50399     -12.858695      750.64529    
   3991000   300.24631      0.0092639081   4.0660268      744.91937     -17.99086       726.92851    
   3992000   294.94636      0.0092639081   5.9991309      731.77004     -12.876611      718.89343    
   3993000   305.31101      0.0092639081   2.3879432      757.48502     -13.443308      744.04171    
   3994000   297.80052      0.0092639081   3.3223171      738.8513      -14.222177      724.62912    
   3995000   300.67153      0.0092639081   10.035599      745.97436     -15.223089      730.75127    
   3996000   301.7778       0.0092639081   6.2986146      748.71904     -16.447667      732.27138    
   3997000   303.75744      0.0092639081   0.10006778     753.63058     -12.766292      740.86429    
   3998000   289.71877      0.0092639081   1.5155375      718.80027     -14.312944      704.48732    
   3999000   297.75709      0.0092639081   9.2171145      738.74354     -17.103948      721.63959    
   4000000   307.9244       0.0092639081   2.245777       763.96892     -16.810933      747.15799    
Loop time of 12445.2 on 1 procs for 4000000 steps with 1500 atoms

Performance: 6.942 ns/day, 3.457 hours/ns, 321.408 timesteps/s, 482.112 katom-step/s
99.3% CPU use with 1 MPI tasks x 1 OpenMP threads

MPI task timing breakdown:
Section |  min time  |  avg time  |  max time  |%varavg| %total
---------------------------------------------------------------
Pair    | 814.73     | 814.73     | 814.73     |   0.0 |  6.55
Bond    | 184.51     | 184.51     | 184.51     |   0.0 |  1.48
Kspace  | 10569      | 10569      | 10569      |   0.0 | 84.93
Neigh   | 0.04926    | 0.04926    | 0.04926    |   0.0 |  0.00
Comm    | 30.046     | 30.046     | 30.046     |   0.0 |  0.24
Output  | 0.13548    | 0.13548    | 0.13548    |   0.0 |  0.00
Modify  | 826.71     | 826.71     | 826.71     |   0.0 |  6.64
Other   |            | 19.69      |            |       |  0.16

Nlocal:           1500 ave        1500 max        1500 min
Histogram: 1 0 0 0 0 0 0 0 0 0
Nghost:            921 ave         921 max         921 min
Histogram: 1 0 0 0 0 0 0 0 0 0
Neighs:              0 ave           0 max           0 min
Histogram: 1 0 0 0 0 0 0 0 0 0

Total # of neighbors = 0
Ave neighs/atom = 0
Ave special neighs/atom = 2
Neighbor list builds = 19580
Dangerous builds = 0
write_data	last_conf.data pair ij
System init for write_data ...
PPPM initialization ...
  using 12-bit tables for long-range coulomb (src/kspace.cpp:342)
  G vector (1/distance) = 0.15674324
  grid = 30 30 30
  stencil order = 5
  estimated absolute RMS force accuracy = 0.037664379
  estimated relative force accuracy = 0.00011342516
  using double precision FFTW3
  3d grid and FFT values/proc = 42875 27000
Generated 1 of 1 mixed pair_coeff terms from arithmetic mixing rule
Total wall time: 3:27:25
