LAMMPS data file via write_data, version 29 Aug 2024, timestep = 0, units = real

1500 atoms
2 atom types
1000 bonds
1 bond types
500 angles
1 angle types

0 110 xlo xhi
0 110 ylo yhi
0 110 zlo zhi

Masses

1 12.0107
2 15.9994

PairIJ Coeffs # lj/cut/coul/long/gpu

1 1 0.053649 2.8 12
1 2 0.0917684 2.925 12
2 2 0.156973 3.05 12

Bond Coeffs # harmonic

1 0 1.16

Angle Coeffs # harmonic

1 0 180

Atoms # full

1 1 1 0.7 8.10443385415917 31.219786853166198 10.957641164286827 0 0 0
2 1 2 -0.35 7.096773109916954 31.457472878799756 10.434453647490269 0 0 0
3 1 2 -0.35 9.112094598401386 30.98210082753264 11.480828681083384 0 0 0
4 2 1 0.7 25.075048168690433 26.334571180089643 75.13782376662726 0 0 0
5 2 2 -0.35 25.422368024820017 26.835138270901854 74.15070598989851 0 0 0
6 2 2 -0.35 24.72772831256085 25.834004089277432 76.12494154335602 0 0 0
7 3 1 0.7 41.4040457044747 17.796155106181352 9.978869589967127 0 0 0
8 3 2 -0.35 40.94143684952172 16.732391891344843 9.977936809291094 0 0 0
9 3 2 -0.35 41.86665455942767 18.85991832101786 9.97980237064316 0 0 0
10 4 1 0.7 74.86119857749958 12.164492035361235 68.61763831629308 0 0 0
11 4 2 -0.35 73.77613925974057 12.363535973512397 68.97628547943485 0 0 0
12 4 2 -0.35 75.94625789525858 11.965448097210073 68.25899115315131 0 0 0
13 5 1 0.7 16.6471819377724 59.18682814072204 23.02056111536015 0 0 0
14 5 2 -0.35 16.47452316272798 59.471806590242274 24.131675974728523 0 0 0
15 5 2 -0.35 16.819840712816823 58.90184969120181 21.909446255991774 0 0 0
16 6 1 0.7 36.570665858020384 73.18107574860615 44.34010682363999 0 0 0
17 6 2 -0.35 35.48319167363097 73.3546353937964 43.97558391921832 0 0 0
18 6 2 -0.35 37.6581400424098 73.0075161034159 44.70462972806166 0 0 0
19 7 1 0.7 84.17538491737814 25.694306374385164 94.20723429145627 0 0 0
20 7 2 -0.35 83.15401231781297 25.956982490632488 93.72412015296442 0 0 0
21 7 2 -0.35 85.19675751694331 25.43163025813784 94.69034842994813 0 0 0
22 8 1 0.7 0.986736505751841 84.0804521711918 80.15964122030867 0 0 0
23 8 2 -0.35 0.5118431060221376 85.09788445301518 80.45103066897974 0 0 0
24 8 2 -0.35 1.4616299054815445 83.0630198893684 79.8682517716376 0 0 0
25 9 1 0.7 73.08998972787056 53.4573563204414 87.78767765862293 0 0 0
26 9 2 -0.35 72.74923272482178 54.16937489559512 86.93766929777624 0 0 0
27 9 2 -0.35 73.43074673091934 52.74533774528768 88.63768601946961 0 0 0
28 10 1 0.7 17.498408475657186 65.75125037028978 21.264973460354366 0 0 0
29 10 2 -0.35 17.50498778563153 64.79170839607252 21.91676783927728 0 0 0
30 10 2 -0.35 17.49182916568284 66.71079234450704 20.61317908143145 0 0 0
31 11 1 0.7 10.408948175799544 43.191990662921214 37.787071716872546 0 0 0
32 11 2 -0.35 10.014537204246999 43.16281258407355 38.87757097190839 0 0 0
33 11 2 -0.35 10.80335914735209 43.22116874176888 36.6965724618367 0 0 0
34 12 1 0.7 57.31434547682961 12.204429075217075 79.8394671733675 0 0 0
35 12 2 -0.35 56.39500669820284 12.887837366498662 80.02213987937644 0 0 0
36 12 2 -0.35 58.233684255456375 11.521020783935487 79.65679446735855 0 0 0
37 13 1 0.7 81.92478278741463 39.82430807772293 87.14586228930665 0 0 0
38 13 2 -0.35 82.00975296423677 38.67346551971446 87.02778826283455 0 0 0
39 13 2 -0.35 81.83981261059249 40.9751506357314 87.26393631577875 0 0 0
40 14 1 0.7 10.507496376758207 49.49160417518187 95.39137228177458 0 0 0
41 14 2 -0.35 9.806476971249149 49.150772229437365 96.2504446756156 0 0 0
42 14 2 -0.35 11.208515782267265 49.832436120926374 94.53229988793356 0 0 0
43 15 1 0.7 102.79393978547023 107.7459743980998 66.59170886342959 0 0 0
44 15 2 -0.35 102.00730270825643 107.75208936626001 65.73920389809687 0 0 0
45 15 2 -0.35 103.58057686268403 107.7398594299396 67.4442138287623 0 0 0
46 16 1 0.7 66.85086766111239 22.532780315975092 88.43877059334832 0 0 0
47 16 2 -0.35 65.70134035749149 22.382604992579545 88.39834349262247 0 0 0
48 16 2 -0.35 68.00039496473329 22.68295563937064 88.47919769407417 0 0 0
49 17 1 0.7 70.41736240518156 14.60994388657154 29.326901607833292 0 0 0
50 17 2 -0.35 69.44563593520427 15.18163265641548 29.599884424105277 0 0 0
51 17 2 -0.35 71.38908887515886 14.038255116727598 29.05391879156131 0 0 0
52 18 1 0.7 97.23532285412556 74.07120928823538 44.81450737212529 0 0 0
53 18 2 -0.35 96.41968431723708 74.69299474168032 44.27255107589218 0 0 0
54 18 2 -0.35 98.05096139101403 73.44942383479044 45.3564636683584 0 0 0
55 19 1 0.7 27.425403309718426 38.75342643761701 18.838137029129143 0 0 0
56 19 2 -0.35 27.24566267121044 39.06504503937162 17.735328274217736 0 0 0
57 19 2 -0.35 27.605143948226413 38.4418078358624 19.94094578404055 0 0 0
58 20 1 0.7 32.56904857352797 27.999375284649137 5.500409098109421 0 0 0
59 20 2 -0.35 33.48950769995885 27.934683408219595 6.203381329206873 0 0 0
60 20 2 -0.35 31.648589447097095 28.06406716107868 4.79743686701197 0 0 0
61 21 1 0.7 45.37571192503707 109.59032409805354 44.57711598583363 0 0 0
62 21 2 -0.35 46.18534859616613 108.86185361301978 44.97638934231729 0 0 0
63 21 2 -0.35 44.56607525390802 0.31879458308731046 44.17784262934997 0 1 0
64 22 1 0.7 107.58837390578742 57.80023456914361 38.542403596705945 0 0 0
65 22 2 -0.35 106.66306889325762 57.11586116721015 38.39733919544489 0 0 0
66 22 2 -0.35 108.51367891831723 58.484607971077075 38.687467997967 0 0 0
67 23 1 0.7 102.17724983681796 83.03800739955064 49.790364247649144 0 0 0
68 23 2 -0.35 102.93988858206443 83.63771893993581 49.15449616968191 0 0 0
69 23 2 -0.35 101.4146110915715 82.43829585916546 50.426232325616375 0 0 0
70 24 1 0.7 56.651910239202856 98.65539028246673 71.14447741822549 0 0 0
71 24 2 -0.35 55.83247252404291 99.39526709679004 71.50043265501834 0 0 0
72 24 2 -0.35 57.4713479543628 97.91551346814342 70.78852218143264 0 0 0
73 25 1 0.7 25.23196811565755 23.688119856495465 36.230428119297336 0 0 0
74 25 2 -0.35 24.18814744872936 23.20475359786334 36.080776940519584 0 0 0
75 25 2 -0.35 26.275788782585742 24.17148611512759 36.38007929807509 0 0 0
76 26 1 0.7 74.80540103037163 64.37511745578382 102.59907935867044 0 0 0
77 26 2 -0.35 73.72433488695424 64.6720257808058 102.30118434345653 0 0 0
78 26 2 -0.35 75.88646717378901 64.07820913076185 102.89697437388435 0 0 0
79 27 1 0.7 22.726781173947632 49.01119053783416 51.079369378778786 0 0 0
80 27 2 -0.35 21.880096552883547 48.93695396536114 50.28993028438263 0 0 0
81 27 2 -0.35 23.573465795011717 49.08542711030718 51.868808473174944 0 0 0
82 28 1 0.7 50.96114913512075 44.03351397441398 101.26936797577393 0 0 0
83 28 2 -0.35 50.13085240581697 44.588066286830305 101.85985851261694 0 0 0
84 28 2 -0.35 51.79144586442453 43.47896166199765 100.67887743893093 0 0 0
85 29 1 0.7 4.267568832387947 5.029365944224114 48.55342457469247 0 0 0
86 29 2 -0.35 3.108196157546402 5.054159768400802 48.58241193596349 0 0 0
87 29 2 -0.35 5.4269415072294915 5.004572120047427 48.52443721342145 0 0 0
88 30 1 0.7 57.40682685626988 26.538973327977104 100.52472331119921 0 0 0
89 30 2 -0.35 56.48700136693357 26.588007640005575 99.81965827490035 0 0 0
90 30 2 -0.35 58.32665234560619 26.489939015948632 101.22978834749807 0 0 0
91 31 1 0.7 29.0246913251582 77.98710193391288 79.22220327389529 0 0 0
92 31 2 -0.35 29.336871466792157 77.00155992153493 78.69603742455932 0 0 0
93 31 2 -0.35 28.712511183524246 78.97264394629083 79.74836912323126 0 0 0
94 32 1 0.7 47.57042435816043 36.122187602390625 15.607033379192945 0 0 0
95 32 2 -0.35 46.779053083696326 35.27473285421433 15.5730929056176 0 0 0
96 32 2 -0.35 48.361795632624535 36.96964235056692 15.64097385276829 0 0 0
97 33 1 0.7 67.41000409583096 69.9388386308862 2.0608693044916118 0 0 0
98 33 2 -0.35 66.26887258373928 69.77547286926047 2.19021573868988 0 0 0
99 33 2 -0.35 68.55113560792263 70.10220439251192 1.9315228702933434 0 0 0
100 34 1 0.7 97.0304005905196 39.942724863040596 97.37677312333918 0 0 0
101 34 2 -0.35 96.03178296724161 39.89031724418677 96.78888173544114 0 0 0
102 34 2 -0.35 98.0290182137976 39.99513248189442 97.96466451123722 0 0 0
103 35 1 0.7 31.42588396157412 64.83174217624206 77.09075610017905 0 0 0
104 35 2 -0.35 30.27967240084826 65.00994426690636 77.08419310229208 0 0 0
105 35 2 -0.35 32.572095522299975 64.65354008557776 77.09731909806602 0 0 0
106 36 1 0.7 84.3377757092648 4.996345613615748 43.58072803988155 0 0 0
107 36 2 -0.35 83.35714291200831 4.441497419714507 43.856595396901994 0 0 0
108 36 2 -0.35 85.3184085065213 5.55119380751699 43.304860682861104 0 0 0
109 37 1 0.7 81.29616628927 34.66682376091686 85.30694972970846 0 0 0
110 37 2 -0.35 80.13695962596606 34.664244756642475 85.26413313843042 0 0 0
111 37 2 -0.35 82.45537295257395 34.66940276519125 85.3497663209865 0 0 0
112 38 1 0.7 13.904107210181703 46.32988152388943 86.31877200972232 0 0 0
113 38 2 -0.35 13.947095319159407 46.93916370859542 85.33260405146855 0 0 0
114 38 2 -0.35 13.861119101203998 45.720599339183444 87.3049399679761 0 0 0
115 39 1 0.7 79.6011674029758 36.82054181435171 92.84627380913416 0 0 0
116 39 2 -0.35 78.81258053857239 36.10597082245783 92.38462561533915 0 0 0
117 39 2 -0.35 80.38975426737922 37.535112806245586 93.30792200292917 0 0 0
118 40 1 0.7 7.323910117765847 2.957349290585774 94.16952687509801 0 0 0
119 40 2 -0.35 7.072231858274483 2.997930181497624 95.30116782742883 0 0 0
120 40 2 -0.35 7.575588377257212 2.916768399673924 93.0378859227672 0 0 0
121 41 1 0.7 27.238189772348008 82.25550385297066 98.25325687800219 0 0 0
122 41 2 -0.35 26.717157341607944 83.00822512697373 97.54084134632122 0 0 0
123 41 2 -0.35 27.759222203088072 81.5027825789676 98.96567240968317 0 0 0
124 42 1 0.7 22.488348582986905 1.6746342609052705 95.57802303488273 0 0 0
125 42 2 -0.35 21.34572825284519 1.5081537778298577 95.68894205895805 0 0 0
126 42 2 -0.35 23.63096891312862 1.8411147439806832 95.46710401080742 0 0 0
127 43 1 0.7 49.83314727425256 5.706238362801372 94.74816360266328 0 0 0
128 43 2 -0.35 50.938206846260066 5.764004669969365 94.40016016004991 0 0 0
129 43 2 -0.35 48.728087702245055 5.648472055633379 95.09616704527666 0 0 0
130 44 1 0.7 72.38566996175128 95.95504715384685 6.477514703980421 0 0 0
131 44 2 -0.35 71.76489110609687 96.83736896056246 6.051202797312883 0 0 0
132 44 2 -0.35 73.00644881740568 95.07272534713124 6.903826610647958 0 0 0
133 45 1 0.7 77.58962979893649 108.90803072550707 17.272403597492914 0 0 0
134 45 2 -0.35 76.46766520953565 108.67603740811471 17.453992586189674 0 0 0
135 45 2 -0.35 78.71159438833732 109.14002404289944 17.090814608796155 0 0 0
136 46 1 0.7 7.287263063382015 47.0303062615126 88.35733724215875 0 0 0
137 46 2 -0.35 6.979514190933769 46.6875771171828 89.42196269983567 0 0 0
138 46 2 -0.35 7.59501193583026 47.3730354058424 87.29271178448182 0 0 0
139 47 1 0.7 21.76702896215349 88.4557669136933 26.074518443119953 0 0 0
140 47 2 -0.35 21.043419024398915 88.60402667375713 26.968949939394896 0 0 0
141 47 2 -0.35 22.490638899908063 88.30750715362946 25.18008694684501 0 0 0
142 48 1 0.7 104.43147351706004 19.775401228002924 55.16843904516122 0 0 0
143 48 2 -0.35 103.42142516976226 19.210423693454334 55.24719640403278 0 0 0
144 48 2 -0.35 105.44152186435782 20.340378762551513 55.089681686289666 0 0 0
145 49 1 0.7 25.955032024511617 76.22323596674168 23.926893027465276 0 0 0
146 49 2 -0.35 26.13520379572751 75.33250155019785 23.20596977770755 0 0 0
147 49 2 -0.35 25.774860253295724 77.11397038328552 24.647816277223 0 0 0
148 50 1 0.7 89.29111260887753 95.72961740462557 67.67971954200404 0 0 0
149 50 2 -0.35 88.6213204934865 94.93699738937441 68.19811324719657 0 0 0
150 50 2 -0.35 89.96090472426856 96.52223741987673 67.1613258368115 0 0 0
151 51 1 0.7 93.04634246185717 69.87775643350452 75.45237791047077 0 0 0
152 51 2 -0.35 92.22243269519608 70.43269505955705 76.05139027905378 0 0 0
153 51 2 -0.35 93.87025222851825 69.32281780745198 74.85336554188777 0 0 0
154 52 1 0.7 48.11554128216372 67.90232932563048 94.44897587152616 0 0 0
155 52 2 -0.35 48.06439482285957 66.74348917552659 94.45755178009996 0 0 0
156 52 2 -0.35 48.16668774146787 69.06116947573436 94.44039996295236 0 0 0
157 53 1 0.7 103.93747274015912 77.10434385440514 92.70716098728923 0 0 0
158 53 2 -0.35 102.8978013787393 77.02649916192897 92.19861043513463 0 0 0
159 53 2 -0.35 104.97714410157894 77.18218854688132 93.21571153944383 0 0 0
160 54 1 0.7 89.25471337011768 33.96761156803352 103.64762393927558 0 0 0
161 54 2 -0.35 88.5345030949229 34.837079963608076 103.91393553985064 0 0 0
162 54 2 -0.35 89.97492364531247 33.09814317245896 103.38131233870051 0 0 0
163 55 1 0.7 45.6155474044455 70.50522651546878 61.34204548380433 0 0 0
164 55 2 -0.35 44.79230364290186 70.33830473498355 62.14204975146739 0 0 0
165 55 2 -0.35 46.438791165989144 70.672148295954 60.542041216141264 0 0 0
166 56 1 0.7 55.75844629935848 42.20695331795465 92.26441486378405 0 0 0
167 56 2 -0.35 54.61939031379335 42.15207494183349 92.0519535129869 0 0 0
168 56 2 -0.35 56.89750228492361 42.26183169407581 92.47687621458121 0 0 0
169 57 1 0.7 18.020615618685547 42.48670324798986 64.02148896549897 0 0 0
170 57 2 -0.35 16.91227354370076 42.55445873851532 63.6859490448903 0 0 0
171 57 2 -0.35 19.128957693670333 42.418947757464394 64.35702888610764 0 0 0
172 58 1 0.7 99.16504314130407 56.88007589749995 83.43560928173159 0 0 0
173 58 2 -0.35 99.53809093329448 55.87142124164255 83.87040938535195 0 0 0
174 58 2 -0.35 98.79199534931365 57.88873055335735 83.00080917811123 0 0 0
175 59 1 0.7 22.285198062791117 107.32384133028046 11.801238023583423 0 0 0
176 59 2 -0.35 22.029161005570252 106.26707689016756 11.397141570440668 0 0 0
177 59 2 -0.35 22.541235120011983 108.38060577039336 12.205334476726177 0 0 0
178 60 1 0.7 13.407462366580713 59.21999512203969 30.45801612104197 0 0 0
179 60 2 -0.35 12.387654638820726 58.95472742691467 29.97301586503784 0 0 0
180 60 2 -0.35 14.4272700943407 59.48526281716471 30.943016377046103 0 0 0
181 61 1 0.7 77.87694635236494 97.83734419748063 72.24392705701474 0 0 0
182 61 2 -0.35 76.80657094606526 98.13203305857091 72.58016352847214 0 0 0
183 61 2 -0.35 78.94732175866461 97.54265533639035 71.90769058555735 0 0 0
184 62 1 0.7 23.682047246807276 44.16807708990205 52.87164998374491 0 0 0
185 62 2 -0.35 24.246100042310033 44.979188207331056 53.4795506327564 0 0 0
186 62 2 -0.35 23.11799445130452 43.35696597247304 52.26374933473342 0 0 0
187 63 1 0.7 33.82127680062376 64.19918808350302 5.754119435210768 0 0 0
188 63 2 -0.35 32.757408003358634 64.62437749374581 5.572468265043721 0 0 0
189 63 2 -0.35 34.88514559788888 63.77399867326023 5.935770605377815 0 0 0
190 64 1 0.7 19.485347587375596 20.236901021672832 1.5954712552928698 0 0 0
191 64 2 -0.35 19.52559491704766 21.14404043469133 0.8736137639535316 0 0 0
192 64 2 -0.35 19.445100257703533 19.329761608654334 2.317328746632208 0 0 0
193 65 1 0.7 85.08538770726202 30.111195952683314 78.87037674843816 0 0 0
194 65 2 -0.35 85.35539595954396 29.497389630007575 79.81691641582825 0 0 0
195 65 2 -0.35 84.81537945498008 30.725002275359053 77.92383708104808 0 0 0
196 66 1 0.7 74.42201100030076 0.7388820549188564 98.39069702121927 0 0 0
197 66 2 -0.35 73.67920359772953 0.9657096144502825 97.52907853202443 0 0 0
198 66 2 -0.35 75.16481840287199 0.5120544953874303 99.2523155104141 0 0 0
199 67 1 0.7 22.444835632315296 40.35247232315711 54.002335301601484 0 0 0
200 67 2 -0.35 22.048610131004708 39.361127482897686 53.548638530836925 0 0 0
201 67 2 -0.35 22.841061133625885 41.34381716341653 54.45603207236604 0 0 0
202 68 1 0.7 7.249414016143145 70.90136931785446 9.31412517992506 0 0 0
203 68 2 -0.35 6.59471605749133 71.56707234770597 8.625786557600502 0 0 0
204 68 2 -0.35 7.904111974794961 70.23566628800295 10.002463802249618 0 0 0
205 69 1 0.7 12.501899000490969 19.41650125170895 73.13653747231538 0 0 0
206 69 2 -0.35 11.399530231392863 19.472711402765707 73.4932215283584 0 0 0
207 69 2 -0.35 13.604267769589075 19.360291100652194 72.77985341627236 0 0 0
208 70 1 0.7 65.78529720464037 43.4901183906431 98.41979153846381 0 0 0
209 70 2 -0.35 64.67152683579525 43.5682346963428 98.10512757760013 0 0 0
210 70 2 -0.35 66.8990675734855 43.412002084943396 98.7344554993275 0 0 0
211 71 1 0.7 71.43638696122747 91.3556573499719 34.53308097763596 0 0 0
212 71 2 -0.35 72.47970813180993 90.91658135749226 34.786642031117104 0 0 0
213 71 2 -0.35 70.39306579064501 91.79473334245155 34.27951992415482 0 0 0
214 72 1 0.7 37.491991127604614 47.894881650756524 99.2759042648952 0 0 0
215 72 2 -0.35 36.334746658696886 47.91316447687993 99.35369229386762 0 0 0
216 72 2 -0.35 38.64923559651234 47.87659882463312 99.19811623592278 0 0 0
217 73 1 0.7 50.122980093640734 36.926433819777536 2.5732090010182973 0 0 0
218 73 2 -0.35 50.071092953108256 38.02040859232669 2.9554745130297704 0 0 0
219 73 2 -0.35 50.17486723417321 35.83245904722838 2.1909434890068242 0 0 0
220 74 1 0.7 17.923680114524288 63.29168480974234 43.34659733965369 0 0 0
221 74 2 -0.35 16.774329369328953 63.3873000228049 43.22229691507706 0 0 0
222 74 2 -0.35 19.073030859719623 63.196069596679784 43.47089776423032 0 0 0
223 75 1 0.7 106.26148755953716 86.82141314112647 57.49066291260098 0 0 0
224 75 2 -0.35 105.72419769067221 86.1290892343216 56.73065817256212 0 0 0
225 75 2 -0.35 106.7987774284021 87.51373704793134 58.25066765263984 0 0 0
226 76 1 0.7 5.571572084711665 31.412027748959154 51.95037675646617 0 0 0
227 76 2 -0.35 6.5289863166374 31.740697118552088 52.516887510112944 0 0 0
228 76 2 -0.35 4.61415785278593 31.08335837936622 51.383866002819396 0 0 0
229 77 1 0.7 59.98214592690679 79.92659352250705 6.257332775861645 0 0 0
230 77 2 -0.35 59.16261540826418 80.5321007442607 5.702958594087689 0 0 0
231 77 2 -0.35 60.8016764455494 79.3210863007534 6.811706957635601 0 0 0
232 78 1 0.7 6.991963906675561 33.93737949614291 35.537191673897766 0 0 0
233 78 2 -0.35 7.127916495221733 33.4301210806139 34.502877508113215 0 0 0
234 78 2 -0.35 6.856011318129388 34.44463791167192 36.57150583968232 0 0 0
235 79 1 0.7 83.58046319968089 36.84499703666428 63.86519521654825 0 0 0
236 79 2 -0.35 82.6675261105927 36.221179962244186 63.51448432560084 0 0 0
237 79 2 -0.35 84.49340028876908 37.46881411108438 64.21590610749567 0 0 0
238 80 1 0.7 2.3360045265108367 101.22807706763412 80.29127572676691 0 0 0
239 80 2 -0.35 3.271113875441859 100.63496263668391 80.6367981968617 0 0 0
240 80 2 -0.35 1.4008951775798142 101.82119149858433 79.94575325667212 0 0 0
241 81 1 0.7 85.47113977161756 23.44614157613653 39.30147012663142 0 0 0
242 81 2 -0.35 84.7271360442967 24.28192889585822 39.60727727161843 0 0 0
243 81 2 -0.35 86.21514349893842 22.61035425641484 38.995662981644415 0 0 0
244 82 1 0.7 99.80841829432568 90.08627273146355 39.98579770791614 0 0 0
245 82 2 -0.35 100.08381714212743 89.04657503112763 40.42029070733693 0 0 0
246 82 2 -0.35 99.53301944652392 91.12597043179947 39.55130470849535 0 0 0
247 83 1 0.7 51.302076946619 54.007241825576514 89.7133624645478 0 0 0
248 83 2 -0.35 50.41879928490176 54.05586574335218 88.9629916982386 0 0 0
249 83 2 -0.35 52.18535460833625 53.95861790780085 90.463733230857 0 0 0
250 84 1 0.7 42.48294165473568 0.8003911426292691 32.17393417012595 0 0 0
251 84 2 -0.35 43.634048064967864 0.6570558625818643 32.170929204881446 0 0 0
252 84 2 -0.35 41.3318352445035 0.943726422676674 32.17693913537046 0 0 0
253 85 1 0.7 97.3115973068921 36.015936935327915 99.85207205631401 0 0 0
254 85 2 -0.35 98.21757492181153 35.33583713009246 99.6025348523071 0 0 0
255 85 2 -0.35 96.40561969197266 36.69603674056337 100.10160926032093 0 0 0
256 86 1 0.7 53.775050469569415 37.27324205323739 1.3791887608259863 0 0 0
257 86 2 -0.35 53.139699813918064 37.58838231286773 2.2971300231753378 0 0 0
258 86 2 -0.35 54.410401125220766 36.95810179360705 0.4612474984766348 0 0 0
259 87 1 0.7 80.02550320235336 18.63232195313662 93.43506636723646 0 0 0
260 87 2 -0.35 79.7120677714802 18.12328312440854 94.42916782157626 0 0 0
261 87 2 -0.35 80.33893863322652 19.1413607818647 92.44096491289666 0 0 0
262 88 1 0.7 3.1604341432267957 97.41664521275862 41.55609083434385 0 0 0
263 88 2 -0.35 3.165084869725334 97.15778818222736 40.425351514921566 0 0 0
264 88 2 -0.35 3.1557834167282572 97.67550224328988 42.68683015376613 0 0 0
265 89 1 0.7 43.21865281705682 45.89789627394541 85.94267620050472 0 0 0
266 89 2 -0.35 42.442558156951414 46.390561094071785 85.23517464321617 0 0 0
267 89 2 -0.35 43.99474747716223 45.40523145381904 86.65017775779327 0 0 0
268 90 1 0.7 28.558901882990682 59.463947424415466 60.56436215087974 0 0 0
269 90 2 -0.35 29.313039757231305 58.68819272332201 60.982788620366605 0 0 0
270 90 2 -0.35 27.80476400875006 60.23970212550892 60.14593568139287 0 0 0
271 91 1 0.7 75.23466983588165 19.095931662756918 75.32345595551816 0 0 0
272 91 2 -0.35 74.22865184226539 18.89743927995744 74.78111974015825 0 0 0
273 91 2 -0.35 76.2406878294979 19.294424045556397 75.86579217087807 0 0 0
274 92 1 0.7 81.3242443936524 66.57552411620297 14.833821023271337 0 0 0
275 92 2 -0.35 80.43826470245035 66.28302670626078 15.523085306369357 0 0 0
276 92 2 -0.35 82.21022408485446 66.86802152614516 14.144556740173318 0 0 0
277 93 1 0.7 52.02993812134021 77.17000536488835 96.28016767850153 0 0 0
278 93 2 -0.35 50.87094209878135 77.12281704899924 96.29024153259448 0 0 0
279 93 2 -0.35 53.18893414389907 77.21719368077747 96.27009382440858 0 0 0
280 94 1 0.7 80.7781725752997 18.74647306219976 31.972756391378475 0 0 0
281 94 2 -0.35 80.86762763357186 18.08417581446544 32.92089148101131 0 0 0
282 94 2 -0.35 80.68871751702756 19.408770309934084 31.02462130174564 0 0 0
283 95 1 0.7 16.11666989797571 52.87097527779218 22.481493853256804 0 0 0
284 95 2 -0.35 14.965778128159386 52.73228149296393 22.524063422423716 0 0 0
285 95 2 -0.35 17.267561667792037 53.00966906262044 22.438924284089893 0 0 0
286 96 1 0.7 106.46719168707132 24.090684607667235 92.13620106323445 0 0 0
287 96 2 -0.35 105.8490109068396 24.42581052666543 93.0587752561142 0 0 0
288 96 2 -0.35 107.08537246730305 23.75555868866904 91.2136268703547 0 0 0
289 97 1 0.7 63.13126978144575 97.25121675862522 11.200062214024394 0 0 0
290 97 2 -0.35 63.123272132955236 97.7126844450176 10.135833097699212 0 0 0
291 97 2 -0.35 63.13926742993627 96.78974907223284 12.264291330349575 0 0 0
292 98 1 0.7 29.445631107988596 2.722031964325361 99.19122441634127 0 0 0
293 98 2 -0.35 29.15418069992961 2.138275024047958 100.15033050761596 0 0 0
294 98 2 -0.35 29.73708151604758 3.3057889046027644 98.23211832506658 0 0 0
295 99 1 0.7 56.908765447749175 15.620880320491679 80.13554650365167 0 0 0
296 99 2 -0.35 55.81146383017096 15.34522851977924 79.87952844799109 0 0 0
297 99 2 -0.35 58.00606706532739 15.896532121204118 80.39156455931224 0 0 0
298 100 1 0.7 108.13008687371858 32.37008658813782 94.0452868323984 0 0 0
299 100 2 -0.35 107.86249635403739 33.486960109036616 93.88222594778202 0 0 0
300 100 2 -0.35 108.39767739339977 31.253213067239027 94.20834771701479 0 0 0
301 101 1 0.7 29.13579211995741 75.25816012418743 83.89720721817446 0 0 0
302 101 2 -0.35 28.264656016864993 75.1627921513436 83.13718956071865 0 0 0
303 101 2 -0.35 30.00692822304983 75.35352809703126 84.65722487563026 0 0 0
304 102 1 0.7 80.36171585803932 59.358426066748066 47.066903834728016 0 0 0
305 102 2 -0.35 81.45703628886619 59.74027509272434 47.05887419126076 0 0 0
306 102 2 -0.35 79.26639542721244 58.976577040771794 47.07493347819527 0 0 0
307 103 1 0.7 43.45275027372537 20.373850502247855 103.30539127965709 0 0 0
308 103 2 -0.35 42.426647094362124 19.834171982354476 103.26718970290521 0 0 0
309 103 2 -0.35 44.47885345308862 20.913529022141233 103.34359285640896 0 0 0
310 104 1 0.7 13.711237196676079 104.76356453484091 101.22913707104938 0 0 0
311 104 2 -0.35 12.551642338622486 104.78540465027707 101.20762487605674 0 0 0
312 104 2 -0.35 14.870832054729672 104.74172441940475 101.25064926604202 0 0 0
313 105 1 0.7 98.10675312676781 90.1998015866614 78.06526701807289 0 0 0
314 105 2 -0.35 97.22680992733657 90.84586033816413 77.67295584644833 0 0 0
315 105 2 -0.35 98.98669632619905 89.55374283515866 78.45757818969744 0 0 0
316 106 1 0.7 72.94277275118175 109.18162911160924 105.6404788166473 0 0 0
317 106 2 -0.35 71.8127436777159 109.10305529342253 105.39055793273103 0 0 0
318 106 2 -0.35 74.0728018246476 109.26020292979595 105.89039970056358 0 0 0
319 107 1 0.7 99.5274713912641 98.21167297578029 93.58770393933528 0 0 0
320 107 2 -0.35 100.22646390444122 97.29419493548039 93.7111685581125 0 0 0
321 107 2 -0.35 98.82847887808698 99.12915101608019 93.46423932055806 0 0 0
322 108 1 0.7 38.54010840809909 63.602014921420256 89.06478431032261 0 0 0
323 108 2 -0.35 39.691161212629915 63.646341504071614 89.20157829868525 0 0 0
324 108 2 -0.35 37.38905560356826 63.5576883387689 88.92799032195997 0 0 0
325 109 1 0.7 31.829903592276345 35.18967538848038 72.87425418983878 0 0 0
326 109 2 -0.35 30.681995931659547 35.29087285457833 72.74133663812863 0 0 0
327 109 2 -0.35 32.97781125289315 35.08847792238243 73.00717174154893 0 0 0
328 110 1 0.7 57.59016862026889 27.96400085928105 70.96244193658346 0 0 0
329 110 2 -0.35 58.36141139784155 28.729217259377492 71.36892494860912 0 0 0
330 110 2 -0.35 56.81892584269623 27.19878445918461 70.5559589245578 0 0 0
331 111 1 0.7 45.76162815827952 105.68445620391725 68.65541923728559 0 0 0
332 111 2 -0.35 44.92277639148926 105.97721426584616 69.4012211081122 0 0 0
333 111 2 -0.35 46.600479925069784 105.39169814198834 67.90961736645897 0 0 0
334 112 1 0.7 101.63112105877656 34.251634857734494 37.22705394366153 0 0 0
335 112 2 -0.35 100.75589079925967 33.536814413370166 37.48897707197359 0 0 0
336 112 2 -0.35 102.50635131829344 34.96645530209882 36.96513081534947 0 0 0
337 113 1 0.7 105.095631119374 72.27222331905377 59.25732333644169 0 0 0
338 113 2 -0.35 104.10347994842851 72.84898523350896 59.426384709988284 0 0 0
339 113 2 -0.35 106.0877822903195 71.69546140459857 59.08826196289509 0 0 0
340 114 1 0.7 107.83331557541774 104.53487604602002 107.66170545837922 0 0 0
341 114 2 -0.35 106.75065800609723 104.27250677001987 107.33826311327869 0 0 0
342 114 2 -0.35 108.91597314473826 104.79724532202016 107.98514780347975 0 0 0
343 115 1 0.7 80.28363897944038 67.12032745458201 41.343529159828805 0 0 0
344 115 2 -0.35 81.19726386045951 67.25467390050802 40.64150308534879 0 0 0
345 115 2 -0.35 79.37001409842125 66.985981008656 42.04555523430882 0 0 0
346 116 1 0.7 100.69458924266257 23.961401429940665 9.273833012801518 0 0 0
347 116 2 -0.35 100.92366850517104 22.886369084172145 8.903119987618943 0 0 0
348 116 2 -0.35 100.46550998015411 25.036433775709185 9.644546037984092 0 0 0
349 117 1 0.7 105.3114461551008 69.4755287791954 25.212191937124445 0 0 0
350 117 2 -0.35 105.50197011724366 69.36384661409932 24.07340850123822 0 0 0
351 117 2 -0.35 105.12092219295793 69.58721094429148 26.35097537301067 0 0 0
352 118 1 0.7 21.309887250564007 105.27502022929258 7.264993720345662 0 0 0
353 118 2 -0.35 20.1552954136627 105.34781262855 7.349958164504481 0 0 0
354 118 2 -0.35 22.464479087465314 105.20222783003516 7.1800292761868425 0 0 0
355 119 1 0.7 2.749457849538633 10.138077195798083 0.6634297783781913 0 0 0
356 119 2 -0.35 3.7465535733257522 10.564693492895993 1.0750104541343637 0 0 0
357 119 2 -0.35 1.7523621257515134 9.711460898700173 0.251849102622019 0 0 0
358 120 1 0.7 40.26428520226119 1.8413944038755234 38.31574593592237 0 0 0
359 120 2 -0.35 39.612231816556914 0.956972493604063 38.68753117880241 0 0 0
360 120 2 -0.35 40.91633858796547 2.725816314146984 37.943960693042335 0 0 0
361 121 1 0.7 32.741945047277 73.87040958454385 79.97388742862915 0 0 0
362 121 2 -0.35 31.696605623705146 73.38962630813435 80.12124051021017 0 0 0
363 121 2 -0.35 33.78728447084885 74.35119286095335 79.82653434704814 0 0 0
364 122 1 0.7 31.12601297028643 84.89999160398729 104.15888821434177 0 0 0
365 122 2 -0.35 30.17286966625888 84.30974939298254 103.86100908728572 0 0 0
366 122 2 -0.35 32.07915627431398 85.49023381499204 104.45676734139782 0 0 0
367 123 1 0.7 58.4342184422697 23.909359226892406 14.600526380632317 0 0 0
368 123 2 -0.35 58.42522656659389 24.443740774461943 13.570984974088113 0 0 0
369 123 2 -0.35 58.443210317945514 23.374977679322868 15.630067787176522 0 0 0
370 124 1 0.7 91.0468792873653 14.90018274863259 67.3714562679508 0 0 0
371 124 2 -0.35 89.89480175938934 14.997322654510993 67.46569643040151 0 0 0
372 124 2 -0.35 92.19895681534126 14.803042842754186 67.2772161055001 0 0 0
373 125 1 0.7 82.06549544914881 94.7820138441315 91.3066783180957 0 0 0
374 125 2 -0.35 81.18652595231059 95.16170634106162 90.6518147968923 0 0 0
375 125 2 -0.35 82.94446494598704 94.40232134720138 91.96154183929912 0 0 0
376 126 1 0.7 91.34249223458697 33.266986703158814 98.24551999021578 0 0 0
377 126 2 -0.35 90.69835959764593 32.37143066423511 98.60422952058076 0 0 0
378 126 2 -0.35 91.98662487152801 34.162542742082515 97.8868104598508 0 0 0
379 127 1 0.7 2.4544755567118877 2.370681656697151 24.046604109018393 0 0 0
380 127 2 -0.35 2.1040134263807433 3.320465438053389 24.61289649275351 0 0 0
381 127 2 -0.35 2.804937687043032 1.4208978753409132 23.480311725283276 0 0 0
382 128 1 0.7 11.275260272098361 83.29939315714846 42.900792194018514 0 0 0
383 128 2 -0.35 10.36682147848194 82.77537776818417 42.40506360861986 0 0 0
384 128 2 -0.35 12.183699065714782 83.82340854611274 43.396520779417166 0 0 0
385 129 1 0.7 93.6144048690863 47.302634733404325 45.38196432654837 0 0 0
386 129 2 -0.35 92.55390090912945 47.76744131657775 45.45186562234806 0 0 0
387 129 2 -0.35 94.67490882904315 46.8378281502309 45.31206303074868 0 0 0
388 130 1 0.7 104.67443629851306 33.25086910894647 47.3571140632765 0 0 0
389 130 2 -0.35 103.60459697102233 33.02467363401614 46.969971427449316 0 0 0
390 130 2 -0.35 105.74427562600378 33.477064583876796 47.74425669910368 0 0 0
391 131 1 0.7 81.0160614880808 56.94543017397887 81.84493406296006 0 0 0
392 131 2 -0.35 80.2860338628632 56.1560758748438 82.28034129401641 0 0 0
393 131 2 -0.35 81.74608911329838 57.73478447311394 81.40952683190372 0 0 0
394 132 1 0.7 17.80679616974983 78.82322498542406 51.94233002231565 0 0 0
395 132 2 -0.35 17.51129113093903 79.52486263305374 52.81753364631758 0 0 0