LAMMPS data file via write_data, version 29 Aug 2024, timestep = 4000000, units = real

1500 atoms
2 atom types
1000 bonds
1 bond types
500 angles
1 angle types

0 110 xlo xhi
0 110 ylo yhi
0 110 zlo zhi

Masses

1 12.0107
2 15.9994

PairIJ Coeffs # lj/cut/coul/long/gpu

1 1 0.053649 2.8 12
1 2 0.0917684 2.925 12
2 2 0.156973 3.05 12

Bond Coeffs # harmonic

1 0 1.16

Angle Coeffs # harmonic

1 0 180

Atoms # full

175 59 1 0.7 20.793212911731896 3.403360340677048 11.438976754390179 1 0 2
176 59 2 -0.35 19.92714047522641 3.4676031054051686 10.669956987474746 1 0 2
177 59 2 -0.35 21.65928534823738 3.3391175759489276 12.207996521305612 1 0 2
1118 373 2 -0.35 27.69529605302173 18.41488062209474 10.873758996420293 5 3 1
157 53 1 0.7 15.45942712811845 26.077730412103712 21.99687411452186 -1 0 1
158 53 2 -0.35 15.477797117988095 25.365376873401882 22.912196450843233 -1 0 1
159 53 2 -0.35 15.441057138248809 26.790083950805542 21.081551778200488 -1 0 1
1365 455 2 -0.35 17.08584598482929 18.719586717632748 18.86058070895797 3 -2 -3
829 277 1 0.7 25.66092806991997 24.772147578044287 18.62346700776112 0 4 1
831 277 2 -0.35 26.49097724241255 24.863365872584357 17.818297712527784 0 4 1
1363 455 1 0.7 16.195617766999234 18.092851989388407 19.26095216222533 3 -2 -3
1364 455 2 -0.35 15.305389549169174 17.46611726114407 19.661323615492694 3 -2 -3
830 277 2 -0.35 24.830878897427386 24.680929283504216 19.42863630299446 0 4 1
1288 430 1 0.7 3.6955865601073272 23.08425112134887 23.349473942768753 4 3 3
1289 430 2 -0.35 3.1420689755972555 22.4286600451759 22.568821251439413 4 3 3
1454 485 2 -0.35 25.24629412530194 9.000936619529199 22.963070967447653 -4 -2 -1
1453 485 1 0.7 24.84739507522681 9.951352910588588 22.430916458363544 -4 -2 -1
1455 485 2 -0.35 24.44849602515168 10.901769201647978 21.89876194927944 -4 -2 -1
1290 430 2 -0.35 4.2491041446174 23.739842197521842 24.130126634098094 4 3 3
1117 373 1 0.7 28.741350655525856 17.956653856110407 10.670294012909125 5 3 1
1119 373 2 -0.35 29.787405258029985 17.49842709012608 10.466829029397958 5 3 1
1270 424 1 0.7 45.10702931736908 16.734810478161528 13.467031614668132 2 -6 1
1271 424 2 -0.35 45.354798183364615 15.64188030548873 13.76655494715324 2 -6 1
1272 424 2 -0.35 44.85926045137355 17.827740650834325 13.167508282183023 2 -6 1
671 224 2 -0.35 49.526287231265286 9.932231468201062 2.673280774979429 1 -1 2
672 224 2 -0.35 50.26331736339665 11.679127460094476 1.3362912545135144 1 -1 2
670 224 1 0.7 49.89480229733097 10.805679464147769 2.004786014746472 1 -1 2
693 231 2 -0.35 33.1581305810021 22.09921986372387 27.83765884779172 0 -5 -3
691 231 1 0.7 33.098968594685495 22.804096518865727 26.91828473437968 0 -5 -3
230 77 2 -0.35 29.92751974051636 27.823072396703886 109.43045621078629 -2 8 -3
692 231 2 -0.35 33.039806608368885 23.508973174007586 25.998910620967642 0 -5 -3
513 171 2 -0.35 55.68985985573127 8.347609067693211 12.422528029362567 7 3 3
511 171 1 0.7 56.610190906002856 7.759932433733318 12.813970147438086 7 3 3
512 171 2 -0.35 57.53052195627444 7.172255799773423 13.205412265513607 7 3 3
419 140 2 -0.35 59.54326354795089 26.57684121206475 15.248748159963757 1 2 -1
418 140 1 0.7 58.45983301248141 26.981185895218452 15.15773358960269 1 2 -1
420 140 2 -0.35 57.376402477011936 27.38553057837215 15.066719019241624 1 2 -1
1445 482 2 -0.35 58.36325618507374 15.782167799726624 13.172325974210073 -1 0 4
1444 482 1 0.7 59.02427525546791 16.03567701670083 12.253420720396784 -1 0 4
1446 482 2 -0.35 59.68529432586209 16.28918623367504 11.334515466583495 -1 0 4
269 90 2 -0.35 62.5680290657336 15.095819356432527 4.642115194010383 -1 0 2
268 90 1 0.7 61.50320221979324 15.39120029166842 4.289278275220587 -1 0 2
270 90 2 -0.35 60.43837537385288 15.686581226904314 3.9364413564307914 -1 0 2
1153 385 1 0.7 70.62672504854874 9.321566397636534 20.523490677931612 -9 2 -3
1155 385 2 -0.35 70.18647997295933 9.894382210465865 19.61593003643648 -9 2 -3
426 142 2 -0.35 64.53486120211399 20.787310382327494 17.80702832824388 -3 1 1
424 142 1 0.7 65.20161426112864 20.29698794528684 18.61981628707889 -3 1 1
425 142 2 -0.35 65.86836732014329 19.80666550824619 19.432604245913897 -3 1 1
1154 385 2 -0.35 71.06697012413814 8.748750584807203 21.431051319426743 -9 2 -3
160 54 1 0.7 80.14977798967429 14.905015797156052 6.085364381229428 -1 4 3
161 54 2 -0.35 80.04580070990352 14.648020178702895 7.211748852618606 -1 4 3
1198 400 1 0.7 69.50542338899837 15.29728959041744 0.6595837705170262 -3 4 -5
1200 400 2 -0.35 68.52939854618572 15.857742991472318 0.9404173359204528 -3 4 -5
162 54 2 -0.35 80.25375526944507 15.162011415609209 4.95897990984025 -1 4 3
401 134 2 -0.35 71.53673573130456 8.305015248449596 14.928941633938559 3 6 -9
400 134 1 0.7 70.69904819021167 7.676550836463966 15.42785251411936 3 6 -9
402 134 2 -0.35 69.86136064911877 7.048086424478337 15.926763394300162 3 6 -9
1276 426 1 0.7 58.771080592762246 5.558317162695533 7.333912602798222 -6 3 3
1277 426 2 -0.35 59.3291302185414 6.318576401036549 8.009328404867762 -6 3 3
1278 426 2 -0.35 58.21303096698309 4.798057924354518 6.658496800728682 -6 3 3
705 235 2 -0.35 76.48336057730302 4.359161743106408 18.18882833234863 -1 -1 0
703 235 1 0.7 76.00450896087222 4.2586087567408715 17.13707254968175 -1 -1 0
704 235 2 -0.35 75.5256573444414 4.158055770375335 16.085316767014874 -1 -1 0
1253 418 2 -0.35 81.40234058766934 8.28625335140976 6.168968269643337 -1 -1 -3
1398 466 2 -0.35 82.11860432343597 2.8510014755713886 19.646688593779366 -3 -2 1
938 313 2 -0.35 71.37147892997474 26.567720766486925 23.638341893937746 -1 6 -1
1252 418 1 0.7 81.80658191807075 8.689560951725305 7.1786870058872285 -1 -1 -3
1396 466 1 0.7 82.47478625064367 2.9346874152286766 20.747475175380934 -3 -2 1
1199 400 2 -0.35 70.48144823181103 14.736836189362565 0.37875020511359947 -3 4 -5
27 9 2 -0.35 109.27718833868843 1.3808897465238619 14.233671909943704 0 6 3
858 286 2 -0.35 108.45906039213914 2.713268210032892 22.509037181858893 -2 -3 0
1047 349 2 -0.35 102.07493382286034 1.6553600350503017 12.410215596951065 1 0 2
1045 349 1 0.7 101.84149167292294 1.299971275628575 11.330954927645543 1 0 2
1028 343 2 -0.35 87.5929392293301 24.80974467006966 25.015250543156526 1 0 -2
1046 349 2 -0.35 101.60804952298554 0.9445825162068489 10.25169425834002 1 0 2
1029 343 2 -0.35 88.39794780553608 24.187930678466778 27.100366499663885 1 0 -2
1027 343 1 0.7 87.99544351743309 24.498837674268216 26.057808521410205 1 0 -2
126 42 2 -0.35 94.50597733841957 0.12620675860414976 21.45425571126054 3 -1 0
124 42 1 0.7 94.00306309433816 0.6965211400826525 22.33028012266685 3 -1 0
1226 409 2 -0.35 94.73499353374747 12.603259663943778 9.213642365342976 1 2 -1
1225 409 1 0.7 95.05793386498084 13.574911073068414 9.758805718483522 1 2 -1
1227 409 2 -0.35 95.38087419621421 14.546562482193048 10.30396907162407 1 2 -1
977 326 2 -0.35 93.07388412249324 3.6457942570387805 18.668787168284904 -3 2 1
976 326 1 0.7 92.13295073557175 3.107526548232671 19.081718439846046 -3 2 1
978 326 2 -0.35 91.19201734865025 2.569258839426561 19.494649711407188 -3 2 1
1 1 1 0.7 95.00168869077224 17.549535935281565 18.234692541801977 -1 -3 -6
237 79 2 -0.35 107.72780991820574 24.597024831613176 19.122851173029883 -2 3 -4
2 1 2 -0.35 94.21423677500847 16.73284833406649 17.99274039285147 -1 -3 -6
236 79 2 -0.35 105.97983174676673 25.819060253245993 18.209833243062214 -2 3 -4
235 79 1 0.7 106.85382083248624 25.208042542429585 18.666342208046046 -2 3 -4
3 1 2 -0.35 95.78914060653601 18.36622353649664 18.476644690752483 -1 -3 -6
25 9 1 0.7 109.59500172749983 2.4940012984718063 14.308353385641476 0 6 3
26 9 2 -0.35 109.91281511631124 3.6071128504197505 14.383034861339251 0 6 3
30 10 2 -0.35 98.46571936129914 4.105841035386456 20.880232933338252 -2 6 -6
28 10 1 0.7 99.6152492682989 3.9690233483020245 20.806328174257224 -2 6 -6
29 10 2 -0.35 100.76477917529867 3.832205661217593 20.732423415176196 -2 6 -6
1114 372 1 0.7 98.15193917467717 10.343605767473802 17.664351182774702 5 -3 7
1115 372 2 -0.35 99.07655861788098 10.336895664411724 16.96389857212315 5 -3 7
814 272 1 0.7 93.2196871078802 2.071467819477479 10.011384082129323 -3 -1 0
1254 418 2 -0.35 82.21082324847215 9.092868552040851 8.188405742131119 -1 -1 -3
1116 372 2 -0.35 97.22731973147337 10.350315870535878 18.36480379342625 5 -3 7
816 272 2 -0.35 92.56513388263704 2.7130485513662617 10.722393392752645 -3 -1 0
815 272 2 -0.35 93.87424033312338 1.4298870875886962 9.300374771506 -3 -1 0
857 286 2 -0.35 106.34945163221433 2.116205853236295 21.750441491034504 -2 -3 0
856 286 1 0.7 107.40425601217673 2.4147370316345933 22.129739336446697 -2 -3 0
948 316 2 -0.35 107.11107128017305 25.55387550842608 0.5347345031073271 -4 0 1
947 316 2 -0.35 108.56874720000141 25.34962517577808 2.3280171674859536 -4 0 1
946 316 1 0.7 107.83990924008724 25.451750342102077 1.4313758352966417 -4 0 1
125 42 2 -0.35 93.50014885025675 1.2668355215611553 23.206304534073162 3 -1 0
1397 466 2 -0.35 82.83096817785137 3.018373354885965 21.848261756982502 -3 -2 1
1178 393 2 -0.35 84.10785393556533 13.521012543421577 3.0565891742445226 -2 0 2
1177 393 1 0.7 83.43719409148375 12.725880306318105 2.5431886492584606 -2 0 2
1179 393 2 -0.35 82.76653424740216 11.930748069214635 2.0297881242723985 -2 0 2
668 223 2 -0.35 20.783615658588356 50.55757345536403 18.41042146612482 2 4 -1
667 223 1 0.7 20.40509748910538 51.49105645839511 17.835153286556096 2 4 -1
669 223 2 -0.35 20.026579319622403 52.424539461426185 17.259885106987372 2 4 -1
1346 449 2 -0.35 18.51713828811675 33.285557918010916 15.134642415973516 2 -3 -1
1345 449 1 0.7 19.037159985618985 32.46440042671968 15.767791536340296 2 -3 -1
1347 449 2 -0.35 19.557181683121218 31.64324293542844 16.400940656707075 2 -3 -1
225 75 2 -0.35 8.241253795167317 52.14643590038822 10.280377555415358 0 -2 -3
223 75 1 0.7 8.28751955988953 53.05007656912725 11.006251525752239 0 -2 -3
224 75 2 -0.35 8.333785324611743 53.95371723786628 11.73212549608912 0 -2 -3
859 287 1 0.7 23.05245257676574 29.42038201049759 20.214512685435757 -5 -9 6
860 287 2 -0.35 22.210844593358715 28.762806351440666 19.7618646379631 -5 -9 6
861 287 2 -0.35 23.89406056017277 30.07795766955451 20.667160732908417 -5 -9 6
81 27 2 -0.35 5.56940757534425 52.80305707021559 26.87966220587836 -3 1 4
80 27 2 -0.35 6.651023350566676 53.39047480901283 24.91307945528426 -3 1 4
79 27 1 0.7 6.110215462955463 53.09676593961421 25.89637083058131 -3 1 4
122 41 2 -0.35 20.00734609528179 34.57069850867124 0.4631065695702744 -4 3 0
231 77 2 -0.35 31.06323869932928 29.201808991825107 0.9108709661401748 -2 8 -2
229 77 1 0.7 30.49537921992282 28.512440694264498 0.17066358846323018 -2 8 -2
695 232 2 -0.35 30.905885075613288 29.00588031412866 19.48697839654635 4 -1 -2
694 232 1 0.7 30.790225709068928 29.575149694337277 18.482909034555636 4 -1 -2
696 232 2 -0.35 30.674566342524567 30.144419074545894 17.478839672564927 4 -1 -2
982 328 1 0.7 54.09783663773797 36.1158481902758 11.843251440538019 4 -5 -3
984 328 2 -0.35 53.165591044962405 35.91554689709199 11.18264751480012 4 -5 -3
983 328 2 -0.35 55.030082230513536 36.316149483459604 12.503855366275918 4 -5 -3
893 298 2 -0.35 37.046330272724866 45.07083874413154 1.3108980674439024 2 -1 -2
892 298 1 0.7 36.90839928175953 46.205386382518235 1.1124624406958625 2 -1 -2
894 298 2 -0.35 36.7704682907942 47.33993402090493 0.9140268139478229 2 -1 -2
1069 357 1 0.7 33.79970326834925 52.723776649529675 12.551584794256712 -2 4 7
812 271 2 -0.35 40.82923319082878 54.83156060752517 13.921139581811179 2 -4 3
395 132 2 -0.35 44.8887219922602 40.347509898118574 16.457176180343513 3 7 -1
396 132 2 -0.35 44.13742621133102 38.33660967839852 17.337082400283485 3 7 -1
394 132 1 0.7 44.51307410179561 39.342059788258545 16.897129290313497 3 7 -1
1070 357 2 -0.35 34.263099806748976 51.667005895413354 12.432844651760572 -2 4 7
1071 357 2 -0.35 33.33630672994952 53.780547403646 12.670324936752854 -2 4 7
278 93 2 -0.35 33.41368036792927 49.079598179977005 10.680678578678076 -2 -2 4
277 93 1 0.7 33.61746289225745 48.052250118405546 10.182051821311394 -2 -2 4
496 166 1 0.7 43.48425407556117 54.48488572769278 11.527327774618042 4 -4 8
497 166 2 -0.35 44.255139252824065 55.067257281361385 12.169339781479392 4 -4 8
279 93 2 -0.35 33.82124541658564 47.02490205683409 9.68342506394471 -2 -2 4
498 166 2 -0.35 42.71336889829827 53.90251417402417 10.88531576775669 4 -4 8
1421 474 2 -0.35 43.301992176919754 51.12670088484548 19.189166855766356 6 -6 5
1420 474 1 0.7 43.696716320678 50.64007267206304 20.16537678854734 6 -6 5
1422 474 2 -0.35 44.09144046443625 50.1534444592806 21.141586721328327 6 -6 5
1014 338 2 -0.35 53.712875106467976 35.90804521468602 26.323255172589686 -4 5 -4
1012 338 1 0.7 54.58266206596563 36.625434665611074 26.596061002418693 -4 5 -4
1013 338 2 -0.35 55.45244902546329 37.34282411653612 26.868866832247704 -4 5 -4
939 313 2 -0.35 70.7445687132085 28.450796648844 22.4369223995875 -1 6 -1
294 98 2 -0.35 58.62562591786967 51.689960333400414 14.004922839374258 0 1 3
293 98 2 -0.35 56.634864539475274 50.508887268203516 14.160921393727973 0 1 3
292 98 1 0.7 57.63024522867247 51.099423800801965 14.082922116551115 0 1 3
937 313 1 0.7 71.05802382159162 27.509258707665463 23.037632146762622 -1 6 -1
1191 397 2 -0.35 67.9458323857608 48.00681913931223 9.493590507798137 -5 -11 2
1190 397 2 -0.35 68.10911540086553 45.87807060679213 10.401427686077502 -5 -11 2
1189 397 1 0.7 68.02747389331317 46.942444873052175 9.94750909693782 -5 -11 2
916 306 1 0.7 74.64285168563451 52.34770506003004 12.795003561004258 -2 -7 2
917 306 2 -0.35 74.05816524471916 51.391621647235056 12.495593685435363 -2 -7 2
918 306 2 -0.35 75.22753812654986 53.30378847282501 13.094413436573152 -2 -7 2
431 144 2 -0.35 71.29551398980449 31.049047682261833 20.238869745260597 1 3 -1
432 144 2 -0.35 69.38540018636351 30.98348191614122 18.923739946265947 1 3 -1
430 144 1 0.7 70.34045708808401 31.01626479920153 19.581304845763274 1 3 -1
1210 404 1 0.7 76.84884047783375 43.172518257662816 13.61307688364283 -2 4 0
1211 404 2 -0.35 77.10925953908574 44.291199393562614 13.77535574460712 -2 4 0
1212 404 2 -0.35 76.58842141658175 42.053837121763024 13.450798022678539 -2 4 0
806 269 2 -0.35 59.00298568553723 33.862416200268676 27.268502569710986 5 -3 -5
1380 460 2 -0.35 80.73538976047402 46.36159003199306 6.05392621665041 -6 -7 -2
1378 460 1 0.7 80.71330349453471 46.811394100794196 7.122939077444683 -6 -7 -2
1379 460 2 -0.35 80.69121722859542 47.26119816959533 8.191951938238956 -6 -7 -2
770 257 2 -0.35 93.17751748511297 41.49237022911819 2.510216349182536 4 4 -5
769 257 1 0.7 92.24152611960264 41.67700754566512 3.1700869615212923 4 4 -5
771 257 2 -0.35 91.30553475409229 41.861644862212046 3.829957573860048 4 4 -5
141 47 2 -0.35 89.3443835804383 41.38844582474164 18.615228131762954 -8 -1 -4
579 193 2 -0.35 95.55142185338963 36.22925261344314 17.188152523898165 1 0 2
139 47 1 0.7 88.59511373553413 40.503060271492735 18.59828346845696 -8 -1 -4
140 47 2 -0.35 87.84584389062994 39.61767471824383 18.58133880515096 -8 -1 -4
611 204 2 -0.35 91.10211699575187 46.01149686373435 18.210971830274577 1 7 -2
610 204 1 0.7 91.27507386631918 46.023513952280155 17.064001250658563 1 7 -2
612 204 2 -0.35 91.44803073688648 46.035531040825965 15.917030671042552 1 7 -2
1358 453 2 -0.35 104.17192652183748 48.131408659664295 10.214917762707836 0 -4 0
1357 453 1 0.7 103.21466562709935 47.59206135305454 10.586880210083729 0 -4 0
1359 453 2 -0.35 102.25740473236122 47.05271404644478 10.958842657459623 0 -4 0
1376 459 2 -0.35 95.68961969618023 46.527833489854196 4.7976678411679705 -5 -4 2
1375 459 1 0.7 95.85717957666952 47.49992269727591 5.408049901246951 -5 -4 2
1377 459 2 -0.35 96.02473945715882 48.47201190469763 6.018431961325931 -5 -4 2
1304 435 2 -0.35 101.9094571722037 42.5350981243118 12.900962219924068 0 -2 2
1303 435 1 0.7 102.42056976747841 41.803782778766994 12.159651367230232 0 -2 2
1305 435 2 -0.35 102.93168236275312 41.07246743322219 11.418340514536396 0 -2 2
1411 471 1 0.7 99.63671425352443 41.06724710979856 15.069813831412922 0 -6 3
1413 471 2 -0.35 100.52066604784946 40.45808600928427 14.630323241151347 0 -6 3
1412 471 2 -0.35 98.7527624591994 41.67640821031284 15.509304421674496 0 -6 3
577 193 1 0.7 95.71021129583613 36.962169116618746 18.07314931052431 1 0 2
578 193 2 -0.35 95.86900073828264 37.695085619794355 18.95814609715046 1 0 2
746 249 2 -0.35 102.52941080379308 46.761972383954785 3.2858293470214637 -5 -2 6
745 249 1 0.7 103.0517820247374 47.26974827824189 2.38311568881727 -5 -2 6
747 249 2 -0.35 103.57415324568173 47.777524172529006 1.4804020306130776 -5 -2 6
783 261 2 -0.35 25.468084018367115 60.72284990006057 11.335107451939468 3 1 -5
781 261 1 0.7 26.181757789833316 60.84633931200406 10.429005849988014 3 1 -5
782 261 2 -0.35 26.895431561299514 60.96982872394756 9.52290424803656 3 1 -5
601 201 1 0.7 23.682292555602533 63.30447935744178 12.808062435030642 -2 -1 -1
603 201 2 -0.35 24.707067708999762 63.356432745814395 13.349113939432208 -2 -1 -1
602 201 2 -0.35 22.657517402205308 63.252525969069154 12.267010930629075 -2 -1 -1
1063 355 1 0.7 6.1607281606990005 72.22433966711652 0.720438383000074 1 0 0
1064 355 2 -0.35 5.59702440780651 71.31657098522359 0.2690027849913697 1 0 0
1065 355 2 -0.35 6.724431913591492 73.13210834900946 1.1718739810087784 1 0 0
542 181 2 -0.35 5.763840853121856 57.595624249830934 19.271220791540888 -1 1 0
541 181 1 0.7 6.788661516993551 58.13311419911419 19.190926574305646 -1 1 0
543 181 2 -0.35 7.813482180865246 58.670604148397445 19.1106323570704 -1 1 0
437 146 2 -0.35 16.612191060824223 70.74227751594805 18.407743946013813 -4 1 -4
436 146 1 0.7 16.0695647307794 70.94409181644393 19.4129442514543 -4 1 -4
438 146 2 -0.35 15.52693840073458 71.14590611693981 20.418144556894784 -4 1 -4
204 68 2 -0.35 12.184229466951027 67.91643001142434 18.473361624721512 -1 -1 -1
202 68 1 0.7 12.794037228362493 68.77858191287831 17.99333184133209 -1 -1 -1
203 68 2 -0.35 13.403844989773958 69.64073381433228 17.513302057942667 -1 -1 -1
208 70 1 0.7 1.1977575448146012 80.34423199859563 27.641481981679732 -5 4 2
332 111 2 -0.35 6.855936609116542 69.3011339046247 6.463084140793984 0 1 2
331 111 1 0.7 6.673510912159852 68.38954967248982 7.156867286175188 0 1 2
333 111 2 -0.35 6.491085215203163 67.47796544035494 7.850650431556391 0 1 2
210 70 2 -0.35 1.695143128075443 79.72639948199007 26.795024325922594 -5 4 2
1263 421 2 -0.35 25.414039717882854 69.852175634605 3.619766083545162 1 4 1
1261 421 1 0.7 25.724073379290143 68.78291925400411 3.293928821498135 1 4 1
1262 421 2 -0.35 26.034107040697428 67.71366287340322 2.9680915594511075 1 4 1
817 273 1 0.7 27.764046137819985 61.59241020428207 15.057585266269115 9 -5 -1
818 273 2 -0.35 26.899599980581193 61.916605527139474 15.759888786033988 9 -5 -1
467 156 2 -0.35 16.920633090321665 72.67701057812884 0.6210536283433379 3 0 -1
813 271 2 -0.35 38.812048047233354 55.92128421122748 13.566362801302235 2 -4 3
811 271 1 0.7 39.82064061903107 55.376422409376325 13.743751191556706 2 -4 3
819 273 2 -0.35 28.62849229505878 61.26821488142466 14.355281746504241 9 -5 -1
724 242 1 0.7 32.892063351092744 67.38149509639392 6.945807139816098 0 1 3
726 242 2 -0.35 33.02472447485244 68.52587974099136 7.0813977421952075 0 1 3
725 242 2 -0.35 32.75940222733305 66.23711045179648 6.810216537436988 0 1 3
287 96 2 -0.35 35.28192524714352 72.75181775069518 12.35733850955729 -2 0 2
286 96 1 0.7 36.00409983739805 72.49587083140617 13.22828916010921 -2 0 2
288 96 2 -0.35 36.72627442765258 72.23992391211715 14.099239810661128 -2 0 2
532 178 1 0.7 52.83878309667211 60.281332767016984 25.484817512897056 -2 0 -3
879 293 2 -0.35 35.677226036514874 63.76725568283875 27.080938677145383 3 1 5
534 178 2 -0.35 52.920526567598664 61.241030253606276 26.1312683920794 -2 0 -3
1043 348 2 -0.35 54.347233652598156 79.1734340187165 14.87341528153899 3 1 -4
533 178 2 -0.35 52.757039625745556 59.321635280427685 24.838366633714713 -2 0 -3
877 293 1 0.7 34.55713497677299 64.06545450499394 27.12647416167282 3 1 5
878 293 2 -0.35 33.43704391703112 64.36365332714911 27.172009646200255 3 1 5
1044 348 2 -0.35 56.50946159710364 79.74953572850289 15.486013956026609 3 1 -4
1042 348 1 0.7 55.42834762485089 79.46148487360969 15.1797146187828 3 1 -4
465 155 2 -0.35 65.70175569908156 75.03226953477366 11.516881631324974 -11 1 -3
463 155 1 0.7 65.29763548226322 74.45793245531493 10.593613647737646 -11 1 -3
464 155 2 -0.35 64.89351526544488 73.8835953758562 9.67034566415032 -11 1 -3
339 113 2 -0.35 67.67513062280895 58.32772192951642 15.49877965003897 2 3 -2
337 113 1 0.7 66.8626612812335 58.42109304972708 14.676116047519967 2 3 -2
338 113 2 -0.35 66.05019193965805 58.51446416993773 13.853452445000965 2 3 -2
165 55 2 -0.35 70.67262056628813 76.53140809581147 17.545060089891727 4 -7 7
163 55 1 0.7 70.54239647950838 75.42439730728111 17.223861084134736 4 -7 7
164 55 2 -0.35 70.41217239272864 74.31738651875074 16.902662078377745 4 -7 7
317 106 2 -0.35 75.24029600154563 62.043046888176995 25.257032309939824 -1 -3 0
318 106 2 -0.35 76.42041932452591 60.722709081293075 26.755837506846696 -1 -3 0
316 106 1 0.7 75.83035766303577 61.38287798473504 26.00643490839326 -1 -3 0
1088 363 2 -0.35 66.22490715601167 74.6133385518612 20.729029283478553 -3 8 0
1087 363 1 0.7 66.53690358054176 74.727758290777 19.617648901059173 -3 8 0
1089 363 2 -0.35 66.84890000507184 74.8421780296928 18.506268518639793 -3 8 0
1297 433 1 0.7 77.14998089177583 80.73250713010661 21.661979139298758 -5 5 3
1299 433 2 -0.35 77.30012204004362 79.76653438844042 21.037515931452397 -5 5 3
1141 381 1 0.7 73.03242484033063 54.15262435101419 27.315445173386113 -3 4 4
1298 433 2 -0.35 76.99983974350803 81.69847987177279 22.286442347145115 -5 5 3
1142 381 2 -0.35 73.85778204080094 54.228390625845776 26.503875728896517 -3 4 4
302 101 2 -0.35 85.7916388770524 63.02400930382554 6.408294762601314 -5 1 0
301 101 1 0.7 86.22034984029736 61.94652126309955 6.379547030740012 -5 1 0
303 101 2 -0.35 86.6490608035423 60.86903322237356 6.3507992988787105 -5 1 0
1133 378 2 -0.35 97.7568049953312 60.69382153654783 11.490296169406777 3 -2 3
1132 378 1 0.7 98.37825013225154 60.9553497922861 12.434228854107957 3 -2 3
1134 378 2 -0.35 98.99969526917188 61.21687804802436 13.378161538809138 3 -2 3
267 89 2 -0.35 106.09419867530752 56.335128550180926 25.27895592588053 0 5 3
265 89 1 0.7 106.81803639263056 56.62344592950102 24.419577052645106 0 5 3
266 89 2 -0.35 107.54187410995358 56.91176330882111 23.560198179409678 0 5 3
866 289 2 -0.35 1.6199960723324311 79.06426086994821 14.550717608984987 6 5 -4
865 289 1 0.7 1.0005914318050375 79.06186482953515 13.569936211179106 6 5 -4
867 289 2 -0.35 0.381186791277644 79.05946878912209 12.589154813373227 6 5 -4
1287 429 2 -0.35 92.85072063724874 70.52711959151554 8.33907305956371 -1 2 4
1285 429 1 0.7 93.62411402082576 69.66361236015521 8.296435803230638 -1 2 4
1286 429 2 -0.35 94.39750740440276 68.8001051287949 8.253798546897565 -1 2 4
1230 410 2 -0.35 97.70360101585854 69.20190224916293 3.651704267933259 4 3 8
1228 410 1 0.7 96.90374964464084 68.38978472975859 3.866885397773816 4 3 8
1229 410 2 -0.35 96.10389827342314 67.57766721035426 4.082066527614373 4 3 8
398 133 2 -0.35 95.50757797512347 75.89848154710879 1.8298294336164553 -7 6 5
399 133 2 -0.35 97.3794618627472 75.15553871021977 2.9815614564233135 -7 6 5
397 133 1 0.7 96.44351991893534 75.52701012866427 2.405695445019884 -7 6 5
1223 408 2 -0.35 86.16320862559203 78.02544924253583 17.796830096082466 1 -5 0
1222 408 1 0.7 85.44911038055925 78.64062746875707 17.120650056134114 1 -5 0
1224 408 2 -0.35 84.73501213552646 79.25580569497833 16.444470016185758 1 -5 0
585 195 2 -0.35 100.64475198125976 64.50390546845475 1.4208974980586517 -3 -4 4
1482 494 2 -0.35 98.66523334151867 70.97876375846371 9.049885802072696 2 -1 7
1480 494 1 0.7 99.11855723101586 70.32192476984956 8.208066347410078 2 -1 7
1481 494 2 -0.35 99.57188112051304 69.6650857812354 7.36624689274746 2 -1 7
583 195 1 0.7 100.18930302721562 63.651004117254395 0.7800187767861424 -3 -4 4
584 195 2 -0.35 99.73385407317149 62.79810276605404 0.13914005551363307 -3 -4 4
1279 427 1 0.7 96.17170886880251 82.68997685231534 6.055074166553056 -2 5 -3
1280 427 2 -0.35 95.45621450105848 82.90738910430947 5.168282351971293 -2 5 -3
549 183 2 -0.35 103.934842337398 59.7201089713584 25.783122172792012 8 -7 -5
547 183 1 0.7 103.61375526582896 60.5674718998472 25.058912838487235 8 -7 -5
548 183 2 -0.35 103.29266819425993 61.414834828336005 24.334703504182453 8 -7 -5
711 237 2 -0.35 0.042430755481541405 79.32667870190303 109.09319363630495 3 2 1
526 176 1 0.7 27.207173904056837 93.40123112335513 26.281542020415532 7 1 4
179 60 2 -0.35 1.7487951982069954 107.29539905032584 19.27383275580511 1 -4 2
178 60 1 0.7 2.8168115612870523 107.6563610898837 19.000615892871416 1 -4 2
180 60 2 -0.35 3.8848279243671096 108.01732312944156 18.72739902993772 1 -4 2
1235 412 2 -0.35 21.5068275017019 90.32285025318993 11.637724217716174 2 10 -3
1234 412 1 0.7 22.379208626666408 91.05242026073901 11.866369744441965 2 10 -3
1236 412 2 -0.35 23.25158975163092 91.78199026828811 12.095015271167757 2 10 -3
10 4 1 0.7 10.194454613983334 87.29672571572857 18.21730056242217 2 0 3
12 4 2 -0.35 11.199056534775542 86.94801309754774 17.753862874418672 2 0 3
11 4 2 -0.35 9.189852693191124 87.64543833390941 18.680738250425666 2 0 3
1448 483 2 -0.35 19.68461587232207 102.24838327449524 7.567513820628903 -2 3 -1
1447 483 1 0.7 19.830872537642477 102.36051569011943 6.422247341063796 -2 3 -1
1449 483 2 -0.35 19.977129202962885 102.47264810574362 5.276980861498688 -2 3 -1
527 176 2 -0.35 26.07428231271606 93.50975053448984 26.505997315915458 7 1 4
528 176 2 -0.35 28.340065495397614 93.29271171222042 26.057086724915607 7 1 4
722 241 2 -0.35 48.033118130051086 83.82736782862094 11.45002454222351 0 -2 1
723 241 2 -0.35 48.951684349152146 85.95774650496192 11.46110590113066 0 -2 1
721 241 1 0.7 48.49240123960162 84.89255716679142 11.455565221677086 0 -2 1
212 71 2 -0.35 33.10955589571651 88.29165168865974 5.972311845955465 -6 -1 -2
213 71 2 -0.35 31.465839841018067 89.8232306339765 6.550985731481538 -6 -1 -2
211 71 1 0.7 32.28769786836729 89.05744116131812 6.261648788718501 -6 -1 -2
797 266 2 -0.35 40.455436447966555 109.03255027863307 7.422109022576974 -4 -1 2
456 152 2 -0.35 50.53162330071694 90.40204057226673 9.490950892715299 -2 1 3
454 152 1 0.7 49.610923009173234 89.69731707899635 9.526668831961178 -2 1 3
798 266 2 -0.35 38.3378167953179 109.90847417740979 7.060384914634588 -4 -1 2
796 266 1 0.7 39.39662662164223 109.47051222802142 7.241246968605781 -4 -1 2
455 152 2 -0.35 48.69022271762953 88.99259358572597 9.562386771207056 -2 1 3
369 123 2 -0.35 50.88862235197929 96.27950053111779 5.332594678808209 2 1 4
367 123 1 0.7 51.7733569906682 95.86329164952504 4.708403373207947 2 1 4
290 97 2 -0.35 38.219703301360205 96.47995575256468 11.471775393474143 -1 3 -4
368 123 2 -0.35 52.65809162935711 95.44708276793229 4.084212067607684 2 1 4
289 97 1 0.7 39.11390444397085 95.74847080979276 11.36720917019893 -1 3 -4
291 97 2 -0.35 40.00810558658149 95.01698586702085 11.262642946923718 -1 3 -4
129 43 2 -0.35 28.79017547808003 109.77086383923601 16.589568062971228 4 1 4
128 43 2 -0.35 27.88337615595414 108.13407429517831 15.218059777232739 4 1 4
127 43 1 0.7 28.336775817017084 108.95246906720716 15.903813920101983 4 1 4
660 220 2 -0.35 31.44541697532593 85.05856999629903 3.4086669807311427 -1 -3 4
658 220 1 0.7 32.453421627237205 84.86954331687903 2.866637889081577 -1 -3 4
659 220 2 -0.35 33.461426279148476 84.68051663745904 2.3246087974320115 -1 -3 4
364 122 1 0.7 45.14570584820066 101.0008833517086 15.025066144185352 8 0 6
365 122 2 -0.35 44.069694862649555 100.96075160571212 14.593568980883884 8 0 6
701 234 2 -0.35 48.628918065283855 107.22533517894425 18.932602211349412 -2 8 -2
366 122 2 -0.35 46.22171683375178 101.04101509770506 15.45656330748682 8 0 6
700 234 1 0.7 48.41745715431024 106.27531786300784 18.301451371572263 -2 8 -2
702 234 2 -0.35 48.205996243336635 105.32530054707142 17.670300531795117 -2 8 -2
524 175 2 -0.35 47.86042005645049 82.60586518606964 24.28622181110585 1 -4 -6
523 175 1 0.7 47.83271663321155 83.55134910584808 24.957707237440076 1 -4 -6
525 175 2 -0.35 47.8050132099726 84.49683302562651 25.6291926637743 1 -4 -6
1082 361 2 -0.35 57.4622599486651 106.69979713794649 4.413263338314087 3 -1 1
1081 361 1 0.7 56.89535632291568 107.68935229469986 4.201129251342101 3 -1 1
1083 361 2 -0.35 56.32845269716626 108.67890745145324 3.988995164370115 3 -1 1
651 217 2 -0.35 60.18522292210182 96.12098093169418 20.887799005337875 3 2 -3
650 217 2 -0.35 60.88830944349451 98.15990650800448 20.032900275839697 3 2 -3
649 217 1 0.7 60.53676618279817 97.14044371984933 20.460349640588788 3 2 -3
1095 365 2 -0.35 79.2522529680047 108.89850957186307 21.064416637272412 -1 -8 -2
1093 365 1 0.7 78.95535396403035 108.93453348108493 19.943634205484738 -1 -8 -2
1101 367 2 -0.35 59.782295927933404 85.2979090576523 18.782677977082084 -2 1 -1
1099 367 1 0.7 59.22630282502607 85.43322874496411 17.77363870542587 -2 1 -1
1094 365 2 -0.35 78.65845496005602 108.97055739030678 18.822851773697064 -1 -8 -2
1100 367 2 -0.35 58.67030972211874 85.56854843227592 16.76459943376965 -2 1 -1
685 229 1 0.7 71.75609406227737 88.04110733587574 24.363847615575917 2 -4 -4
686 229 2 -0.35 71.40227560499265 86.93978426220087 24.45045007903355 2 -4 -4
687 229 2 -0.35 72.10991251956209 89.14243040955061 24.27724515211828 2 -4 -4
75 25 2 -0.35 67.7232843799426 98.23823363637878 0.47849696010847775 1 1 -5
73 25 1 0.7 67.0728358306939 97.41042607221563 0.9655814717637609 1 1 -5
636 212 2 -0.35 72.7098364705481 104.77942477023034 26.830743654728554 3 3 7
634 212 1 0.7 71.6611499971997 104.37755173628284 27.121182538493596 3 3 7
74 25 2 -0.35 66.42238728144521 96.58261850805249 1.452665983419044 1 1 -5
1401 467 2 -0.35 66.507518395337 87.20148216101818 0.08257309265005591 -3 8 -2
1281 427 2 -0.35 96.88720323654654 82.4725646003212 6.94186598113482 -2 5 -3