LAMMPS (29 Aug 2024 - Update 1)
  using 1 OpenMP thread(s) per MPI task
package gpu 1 gpuID 0
# GCMC for CO2 molecular fluid, rigid/small/nvt dynamics
# Rigid CO2 TraPPE model
# [Potoff and J.I. Siepmann, Vapor-liquid equilibria of
# mixtures containing alkanes, carbon dioxide and
# nitrogen AIChE J., 47,1676-1682 (2001)].

# global model settings

units           real
atom_style      full
boundary        p p p
pair_style      lj/cut/coul/long  12
pair_modify     mix arithmetic shift yes
kspace_style    pppm 1.0e-4
bond_style      harmonic
angle_style     harmonic
neigh_modify    one 4000

# box, start molecules on simple cubic lattice
region          mbox block 0 ${lbox} 0 ${lbox} 0 ${lbox} units box
region          mbox block 0 110 0 ${lbox} 0 ${lbox} units box
region          mbox block 0 110 0 110 0 ${lbox} units box
region          mbox block 0 110 0 110 0 110 units box
create_box      2 mbox                                       bond/types 1                                angle/types 1                               extra/bond/per/atom 2                       extra/angle/per/atom 1                      extra/special/per/atom 2
Created orthogonal box = (0 0 0) to (110 110 110)
  1 by 1 by 1 MPI processor grid
molecule        co2mol ../CO2.txt
Read molecule template co2mol:
# CO2 molecule file. TraPPE model.
  1 molecules
  0 fragments
  3 atoms with max type 2
  2 bonds with max type 1
  1 angles with max type 1
  0 dihedrals with max type 0
  0 impropers with max type 0
create_atoms   	0 random ${nmols} 34578 mbox mol co2mol 464563 overlap 1.2
create_atoms   	0 random 500 34578 mbox mol co2mol 464563 overlap 1.2
Created 1500 atoms
  using lattice units in orthogonal box = (0 0 0) to (110 110 110)
  create_atoms CPU = 0.015 seconds

# rigid CO2 TraPPE model

pair_coeff      1   1  0.053649   2.800
pair_coeff      2   2  0.156973   3.050
bond_coeff      1       0       1.16
angle_coeff     1       0       180

# masses

mass 1 12.0107
mass 2 15.9994

write_data init_conf.data  pair ij
System init for write_data ...
PPPM initialization ...
  using 12-bit tables for long-range coulomb (src/kspace.cpp:342)
  G vector (1/distance) = 0.16792325
  grid = 24 24 24
  stencil order = 5
  estimated absolute RMS force accuracy = 0.038443853
  estimated relative force accuracy = 0.00011577252
  using double precision FFTW3
  3d grid and FFT values/proc = 24389 13824
Generated 1 of 1 mixed pair_coeff terms from arithmetic mixing rule

# MD settings

group           co2 type 1 2
1500 atoms in group co2
velocity       	all create 300 54654
timestep        0.25

# rigid constraints with thermostat
fix             myrigidnvt co2 rigid/nvt molecule temp 300 300 $(100*dt)
fix             myrigidnvt co2 rigid/nvt molecule temp 300 300 25
  500 rigid bodies with 1500 atoms

thermo 1000
thermo_style custom step temp density press ke pe etotal


variable    mvol equal vol
variable    mden equal density
variable	mtmp equal temp
variable    mpre equal press

fix mydat all ave/time 1 4000 4000 v_mtmp v_mden v_mpre file statistics.dat ## every 1ps

run 4000000 ## 1ns

CITE-CITE-CITE-CITE-CITE-CITE-CITE-CITE-CITE-CITE-CITE-CITE-CITE

Your simulation uses code contributions which should be cited:

- GPU package (short-range, long-range and three-body potentials): doi:10.1016/j.cpc.2010.12.021, doi:10.1016/j.cpc.2011.10.012, doi:10.1016/j.cpc.2013.08.002, doi:10.1016/j.commatsci.2014.10.068, doi:10.1016/j.cpc.2016.10.020, doi:10.3233/APC200086

@Article{Brown11,
 author = {W. M. Brown and P. Wang and S. J. Plimpton and A. N. Tharrington},
 title = {Implementing Molecular Dynamics on Hybrid High Performance Computers---Short Range Forces},
 journal = {Comput.\ Phys.\ Commun.},
 year =    2011,
 volume =  182,
 pages =   {898--911},
 doi =     {10.1016/j.cpc.2010.12.021}
}

@Article{Brown12,
 author = {W. M. Brown and A. Kohlmeyer and S. J. Plimpton and A. N. Tharrington},
 title = {Implementing Molecular Dynamics on Hybrid High Performance Computers - Particle-Particle Particle-Mesh},
 journal = {Comput.\ Phys.\ Commun.},
 year =    2012,
 volume =  183,
 doi =     {10.1016/j.cpc.2011.10.012},
 pages =   {449--459}
}

@Article{Brown13,
 author = {W. M. Brown and Y. Masako},
 title = {Implementing Molecular Dynamics on Hybrid High Performance Computers---Three-Body Potentials},
 journal = {Comput.\ Phys.\ Commun.},
 year =    2013,
 volume =  184,
 pages =   {2785--2793},
 doi =     {10.1016/j.cpc.2013.08.002},
}

@Article{Trung15,
 author = {T. D. Nguyen and S. J. Plimpton},
 title = {Accelerating Dissipative Particle Dynamics Simulations for Soft Matter Systems},
 journal = {Comput.\ Mater.\ Sci.},
 year =    2015,
 doi =     {10.1016/j.commatsci.2014.10.068},
 volume =  100,
 pages =   {173--180}
}

@Article{Trung17,
 author = {T. D. Nguyen},
 title = {{GPU}-Accelerated {T}ersoff Potentials for Massively Parallel
    Molecular Dynamics Simulations},
 journal = {Comput.\ Phys.\ Commun.},
 year =    2017,
 doi =     {10.1016/j.cpc.2016.10.020},
 volume =  212,
 pages =   {113--122}
}

@inproceedings{Nikolskiy19,
 author = {V. Nikolskiy and V. Stegailov},
 title = {{GPU} Acceleration of Four-Site Water Models in {LAMMPS}},
 booktitle = {Proceedings of the International Conference on Parallel
    Computing (ParCo 2019), Prague, Czech Republic},
 doi =     {10.3233/APC200086},
 year =    2019
}

CITE-CITE-CITE-CITE-CITE-CITE-CITE-CITE-CITE-CITE-CITE-CITE-CITE

PPPM initialization ...
  using 12-bit tables for long-range coulomb (src/kspace.cpp:342)
  G vector (1/distance) = 0.16792325
  grid = 24 24 24
  stencil order = 5
  estimated absolute RMS force accuracy = 0.038443853
  estimated relative force accuracy = 0.00011577252
  using double precision FFTW3
  3d grid and FFT values/proc = 24389 13824
Generated 1 of 1 mixed pair_coeff terms from arithmetic mixing rule
Per MPI rank memory allocation (min/avg/max) = 9.591 | 9.591 | 9.591 Mbytes
   Step          Temp         Density         Press          KinEng         PotEng         TotEng    
         0   305.66621      0.02745285    -972.4084       758.3663       3347.7853      4106.1516    
      1000   293.69251      0.02745285     11.262073      728.65921     -32.75069       695.90852    
      2000   291.08859      0.02745285     17.542397      722.19882     -41.955468      680.24335    
      3000   296.20117      0.02745285     15.702306      734.88326     -49.31546       685.5678     
      4000   290.03352      0.02745285     14.653545      719.58116     -51.462641      668.11851    
      5000   307.06698      0.02745285     29.058491      761.84165     -38.900168      722.94148    
      6000   308.22473      0.02745285     12.827756      764.71406     -68.325357      696.38871    
      7000   308.80498      0.02745285     19.712995      766.15367     -66.04593       700.10774    
      8000   302.38098      0.02745285     18.413555      750.21555     -64.643228      685.57233    
      9000   296.57433      0.02745285     15.174102      735.80909     -68.226868      667.58222    
     10000   297.46145      0.02745285     0.11345495     738.01006     -72.990011      665.02005    
     11000   309.94618      0.02745285     15.017945      768.98502     -77.080176      691.90484    
     12000   305.83038      0.02745285     16.303867      758.7736      -70.169397      688.6042     
     13000   286.92015      0.02745285     25.585434      711.85679     -68.985572      642.87122    
     14000   296.74482      0.02745285     4.170586       736.23208     -76.480912      659.75117    
     15000   308.72481      0.02745285     26.580423      765.95478     -80.210619      685.74416    
     16000   310.89519      0.02745285     18.688176      771.33954     -78.922389      692.41716    
     17000   299.57243      0.02745285     13.804091      743.24744     -81.250598      661.99685    
     18000   295.66864      0.02745285     7.1630564      733.56205     -85.53464       648.02741    
     19000   317.11988      0.02745285     13.109025      786.78316     -85.338912      701.44425    
     20000   293.26952      0.02745285     13.036207      727.60976     -96.810519      630.79924    
     21000   290.67224      0.02745285     13.038222      721.16583     -90.284583      630.88125    
     22000   300.58267      0.02745285     13.556036      745.75388     -88.146546      657.60734    
     23000   300.56911      0.02745285     11.527977      745.72024     -102.28391      643.43632    
     24000   303.77102      0.02745285     11.859522      753.66428     -96.346874      657.3174     
     25000   299.79361      0.02745285     13.238896      743.79621     -95.888235      647.90798    
     26000   292.60569      0.02745285     11.381295      725.96279     -102.074        623.88879    
     27000   305.56627      0.02745285     14.391011      758.11834     -104.63621      653.48212    
     28000   287.40919      0.02745285     14.543937      713.07012     -103.21509      609.85503    
     29000   291.34838      0.02745285     22.005603      722.84336     -98.331587      624.51177    
     30000   290.28002      0.02745285     7.6978242      720.19274     -95.822884      624.36985    
     31000   312.89767      0.02745285     12.228964      776.30775     -95.830955      680.4768     
     32000   306.28003      0.02745285     12.823862      759.88921     -101.01209      658.87712    
     33000   305.35751      0.02745285     14.184492      757.6004      -101.18211      656.41829    
     34000   299.36332      0.02745285     11.602378      742.72866     -101.09599      641.63267    
     35000   296.6749       0.02745285     18.148221      736.0586      -103.27327      632.78533    
     36000   287.53296      0.02745285     12.087749      713.37721     -98.541076      614.83613    
     37000   298.0583       0.02745285     11.682628      739.49085     -102.06263      637.42822    
     38000   312.98478      0.02745285     13.411287      776.52387     -102.90819      673.61568    
     39000   286.77886      0.02745285     13.282062      711.50626     -110.66341      600.84285    
     40000   293.34665      0.02745285     16.531414      727.80113     -97.815435      629.9857     
     41000   308.55434      0.02745285     14.103696      765.53182     -115.44727      650.08455    
     42000   300.17965      0.02745285     14.897082      744.754       -109.50492      635.24908    
     43000   296.68488      0.02745285     13.43429       736.08335     -111.69344      624.38991    
     44000   303.50077      0.02745285     13.1494        752.99378     -113.91199      639.08178    
     45000   310.09041      0.02745285     16.184147      769.34285     -111.47223      657.87062    
     46000   305.57157      0.02745285     15.174215      758.13148     -115.60677      642.52471    
     47000   292.78153      0.02745285     11.984286      726.39905     -111.70534      614.69371    
     48000   305.15368      0.02745285     7.2774228      757.09469     -105.19435      651.90034    
     49000   311.50535      0.02745285     16.054348      772.85337     -109.77737      663.07599    
     50000   293.13753      0.02745285     12.028028      727.2823      -109.84165      617.44065    
     51000   296.70031      0.02745285     12.695352      736.12164     -110.88391      625.23772    
     52000   294.85661      0.02745285     16.598387      731.54737     -113.22903      618.31834    
     53000   299.25419      0.02745285     14.872901      742.4579      -110.48221      631.97569    
     54000   296.59975      0.02745285    -8.9410128      735.87215     -119.03049      616.84166    
     55000   299.31789      0.02745285     18.08325       742.61594     -120.03632      622.57962    
     56000   297.90929      0.02745285     15.264308      739.12115     -116.59413      622.52702    
     57000   309.73054      0.02745285     6.3518505      768.45002     -117.13676      651.31326    
     58000   318.81774      0.02745285     16.348667      790.9956      -118.19918      672.79642    
     59000   297.00632      0.02745285     15.103754      736.88087     -112.66839      624.21248    
     60000   293.52948      0.02745285     9.6270175      728.25474     -116.98971      611.26504    
     61000   309.00916      0.02745285     14.898422      766.66025     -108.59322      658.06703    
     62000   301.26864      0.02745285     11.360597      747.4558      -105.25686      642.19894    
     63000   292.47808      0.02745285     4.1259006      725.64617     -103.91465      621.73152    
     64000   291.38897      0.02745285     14.537191      722.94406     -105.91632      617.02773    
     65000   314.23397      0.02745285     22.548821      779.62313     -110.95961      668.66352    
     66000   309.71657      0.02745285    -9.8768412      768.41535     -109.38985      659.0255     
     67000   301.09139      0.02745285     2.4393992      747.01604     -106.41567      640.60037    
     68000   292.10759      0.02745285     34.912088      724.72699     -106.92996      617.79704    
     69000   310.35779      0.02745285     4.0554368      770.00623     -107.18961      662.81662    
     70000   300.11035      0.02745285     13.829265      744.58205     -106.99799      637.58406    
     71000   303.79524      0.02745285     20.839818      753.72437     -109.38583      644.33854    
     72000   301.11804      0.02745285     14.469337      747.08215     -100.52378      646.55837    
     73000   294.73717      0.02745285     6.5931354      731.25104     -109.03021      622.22083    
     74000   305.99396      0.02745285     35.460949      759.17945     -112.37499      646.80446    
     75000   317.10753      0.02745285     16.181405      786.75252     -114.4288       672.32372    
     76000   297.54998      0.02745285     9.6321939      738.22971     -111.06421      627.1655     
     77000   283.01424      0.02745285     13.874471      702.16613     -110.26053      591.9056     
     78000   299.73238      0.02745285     15.935         743.6443      -112.35543      631.28887    
     79000   315.82869      0.02745285     15.097444      783.57967     -99.94124       683.63843    
     80000   299.76105      0.02745285     11.724652      743.71542     -100.14742      643.568      
     81000   293.55609      0.02745285     9.3686879      728.32076     -99.980119      628.34064    
     82000   309.9214       0.02745285     18.682178      768.92353     -102.46146      666.46207    
     83000   310.29976      0.02745285     12.104163      769.86227     -102.28152      667.58075    
     84000   301.75624      0.02745285     2.6800723      748.66555     -91.675227      656.99032    
     85000   299.55589      0.02745285     12.224343      743.20642     -92.02936       651.17706    
     86000   298.91181      0.02745285     27.21861       741.60843     -96.67941       644.92902    
     87000   303.24636      0.02745285     14.107012      752.36258     -103.43087      648.93171    
     88000   291.84832      0.02745285     9.5900921      724.08374     -95.474483      628.60925    
     89000   298.92336      0.02745285     22.258898      741.6371      -99.991717      641.64539    
     90000   295.63119      0.02745285     17.633036      733.46913     -102.26611      631.20303    
     91000   309.82975      0.02745285     13.981793      768.69614     -106.46426      662.23188    
     92000   297.47332      0.02745285     14.445165      738.0395      -103.46114      634.57836    
     93000   289.33834      0.02745285     9.9690487      717.85641     -107.1268       610.72961    
     94000   292.36752      0.02745285     16.086186      725.37187     -97.834517      627.53736    
     95000   305.03311      0.02745285     14.980481      756.79556     -106.58006      650.2155     
     96000   305.18219      0.02745285     7.3726201      757.16543     -99.527102      657.63833    
     97000   296.34386      0.02745285     10.579864      735.23728     -107.16393      628.07335    
     98000   292.52237      0.02745285     12.337025      725.75606     -102.81745      622.9386     
     99000   311.94428      0.02745285     13.033847      773.94236     -98.120277      675.82208    
    100000   308.32745      0.02745285     15.301475      764.9689      -93.006362      671.96254    
    101000   289.52175      0.02745285     10.353607      718.31145     -93.816164      624.49528    
    102000   288.7015       0.02745285     14.408597      716.27638     -90.583133      625.69325    
    103000   307.62978      0.02745285     10.439278      763.23797     -90.681693      672.55628    
    104000   312.60743      0.02745285     15.598283      775.58764     -93.432909      682.15473    
    105000   289.27796      0.02745285     23.730703      717.70659     -95.171206      622.53538    
    106000   284.25085      0.02745285     16.543989      705.2342      -93.985495      611.2487     
    107000   290.86116      0.02745285     11.702238      721.63456     -98.962384      622.67218    
    108000   307.75277      0.02745285     14.009715      763.54311     -97.479966      666.06315    
    109000   299.81652      0.02745285     13.796915      743.85306     -96.695853      647.15721    
    110000   290.32806      0.02745285     13.431881      720.31192     -96.20449       624.10743    
    111000   302.53351      0.02745285     13.527365      750.59397     -95.740391      654.85358    
    112000   305.36012      0.02745285     10.859349      757.60687     -97.246344      660.36053    
    113000   306.72154      0.02745285     20.67743       760.9846      -100.42531      660.55928    
    114000   295.24868      0.02745285     10.854643      732.52011     -101.06679      631.45332    
    115000   324.19134      0.02745285     10.24939       804.32766     -104.3818       699.94586    
    116000   311.7124       0.02745285     12.183099      773.36705     -97.80654       675.56051    
    117000   299.58477      0.02745285     22.785012      743.27807     -87.702944      655.57513    
    118000   292.86455      0.02745285     27.748757      726.60503     -94.577452      632.02758    
    119000   297.89602      0.02745285     8.083671       739.08824     -90.155824      648.93242    
    120000   308.50256      0.02745285     9.6429661      765.40335     -86.489957      678.91339    
    121000   300.36833      0.02745285     15.63838       745.2221      -91.989698      653.2324     
    122000   292.64551      0.02745285     12.538065      726.06157     -91.159623      634.90195    
    123000   295.61079      0.02745285    -2.7432284      733.41852     -91.824931      641.59359    
    124000   304.76433      0.02745285     16.996886      756.1287      -88.801682      667.32702    
    125000   309.05326      0.02745285     37.382792      766.76965     -85.296889      681.47276    
    126000   303.12771      0.02745285     8.814615       752.0682      -94.054172      658.01403    
    127000   299.35202      0.02745285    -16.603881      742.70062     -83.162135      659.53848    
    128000   301.704        0.02745285     23.692317      748.53594     -83.855315      664.68062    
    129000   291.25241      0.02745285     12.440214      722.60525     -87.282026      635.32323    
    130000   289.59593      0.02745285     10.311945      718.49548     -82.884969      635.61051    
    131000   309.21287      0.02745285     23.410884      767.16565     -81.848532      685.31711    
    132000   306.39877      0.02745285     13.672277      760.1838      -79.67506       680.50874    
    133000   293.36455      0.02745285     1.8814352      727.84554     -80.881304      646.96423    
    134000   301.64046      0.02745285     7.1979724      748.37831     -81.741952      666.63635    
    135000   302.93087      0.02745285     29.41039       751.57985     -85.473946      666.1059     
    136000   290.73296      0.02745285     16.004965      721.31649     -90.716241      630.60025    
    137000   307.39036      0.02745285     11.015031      762.64396     -88.1528        674.49116    
    138000   306.0517       0.02745285    -0.13530291     759.32271     -81.700034      677.62268    
    139000   307.03043      0.02745285     25.499444      761.75097     -80.575252      681.17572    
    140000   298.27993      0.02745285     21.747097      740.04074     -82.253155      657.78758    
    141000   302.29277      0.02745285    -11.688531      749.99668     -79.161405      670.83528    
    142000   297.81489      0.02745285     17.187204      738.88695     -75.146812      663.74014    
    143000   291.25533      0.02745285     22.354675      722.61251     -78.05009       644.56242    
    144000   300.86006      0.02745285    -3.0160092      746.44211     -78.211297      668.23081    
    145000   308.0785       0.02745285     6.8702546      764.35126     -75.345423      689.00584    
    146000   306.96988      0.02745285     18.620417      761.60073     -69.587146      692.01358    
    147000   294.44225      0.02745285     31.431158      730.51933     -76.753249      653.76608    
    148000   294.73676      0.02745285     17.729024      731.25003     -73.60193       657.6481     
    149000   315.39062      0.02745285    -11.989139      782.49283     -74.085176      708.40766    
    150000   313.74308      0.02745285     17.879134      778.40522     -76.126546      702.27867    
    151000   302.57768      0.02745285     16.50132       750.70358     -74.955761      675.74781    
    152000   284.39336      0.02745285     26.57839       705.58778     -75.92215       629.66563    
    153000   308.94325      0.02745285     10.005303      766.49671     -78.452608      688.0441     
    154000   305.31205      0.02745285     24.068882      757.4876      -78.07819       679.40941    
    155000   292.59762      0.02745285     21.719402      725.94277     -76.281092      649.66167    
    156000   283.85076      0.02745285     20.825969      704.24155     -68.899165      635.34239    
    157000   298.34655      0.02745285     10.09336       740.206       -72.063257      668.14275    
    158000   323.60941      0.02745285     5.7740427      802.88387     -74.621269      728.2626     
    159000   302.69772      0.02745285     16.663295      751.00138     -76.072708      674.92867    
    160000   305.08852      0.02745285     14.084714      756.93304     -71.059497      685.87354    
    161000   293.66147      0.02745285     11.808786      728.5822      -70.637078      657.94512    
    162000   308.99419      0.02745285     15.763464      766.62311     -62.625219      703.9979     
    163000   302.4235       0.02745285     12.264412      750.32103     -61.735563      688.58547    
    164000   297.21247      0.02745285     14.922573      737.39234     -56.952013      680.44033    
    165000   307.76099      0.02745285     15.3948        763.56349     -63.194986      700.3685     
    166000   279.36744      0.02745285     11.7816        693.11832     -58.59869       634.51963    
    167000   304.8518       0.02745285     14.083055      756.34572     -60.568042      695.77768    
    168000   316.64349      0.02745285     16.796882      785.60123     -61.604558      723.99667    
    169000   302.38767      0.02745285     3.27951        750.23215     -64.982102      685.25005    
    170000   295.65521      0.02745285     15.300004      733.52872     -60.856051      672.67267    
    171000   312.77701      0.02745285     17.845657      776.00839     -64.940084      711.06831    
    172000   291.86116      0.02745285     15.009588      724.11558     -62.126354      661.98923    
    173000   288.5079       0.02745285     16.605071      715.79604     -68.26588       647.53016    
    174000   308.40517      0.02745285     16.248085      765.16174     -69.208406      695.95333    
    175000   296.54761      0.02745285     15.185115      735.74279     -67.228688      668.51411    
    176000   309.87789      0.02745285     14.720042      768.81559     -60.846454      707.96914    
    177000   297.70517      0.02745285     11.200769      738.61473     -67.188466      671.42627    
    178000   298.84924      0.02745285     14.32767       741.45321     -63.158386      678.29482    
    179000   297.83516      0.02745285     14.442276      738.93723     -64.172941      674.76429    
    180000   301.71969      0.02745285     14.664995      748.57487     -65.333306      683.24157    
    181000   311.42338      0.02745285     11.771282      772.64998     -64.147059      708.50292    
    182000   305.72843      0.02745285     16.924094      758.52066     -57.592628      700.92803    
    183000   285.70842      0.02745285     15.941995      708.85046     -61.581194      647.26926    
    184000   305.69282      0.02745285     14.77114       758.43232     -60.252174      698.18015    
    185000   310.03038      0.02745285     14.551185      769.19393     -60.058296      709.13563    
    186000   300.8242       0.02745285     11.094209      746.35312     -61.197206      685.15592    
    187000   295.88705      0.02745285     14.400711      734.10393     -57.84235       676.26158    
    188000   293.00279      0.02745285     16.985899      726.94801     -64.084401      662.86361    
    189000   313.49319      0.02745285     14.527192      777.78525     -60.864003      716.92124    
    190000   301.74438      0.02745285     7.857646       748.63612     -53.974972      694.66114    
    191000   286.26425      0.02745285     12.662759      710.22949     -53.98326       656.24623    
    192000   299.85194      0.02745285     14.947124      743.94094     -52.304697      691.63624    
    193000   311.16382      0.02745285     9.8054024      772.00601     -59.612246      712.39376    
    194000   297.15812      0.02745285     13.73636       737.25749     -64.052523      673.20497    
    195000   299.11519      0.02745285     16.450857      742.11303     -57.668501      684.44452    
    196000   305.00479      0.02745285     19.370374      756.72528     -58.014172      698.71111    
    197000   303.04367      0.02745285     13.298163      751.85969     -63.272129      688.58756    
    198000   288.59417      0.02745285     13.145105      716.01009     -60.909147      655.10094    
    199000   292.14616      0.02745285     16.622651      724.82269     -56.562392      668.26029    
    200000   303.32394      0.02745285     13.852604      752.55505     -59.144266      693.41078    
    201000   292.33266      0.02745285     5.9563962      725.28538     -62.68867       662.59671    
    202000   296.48813      0.02745285     17.484687      735.59522     -60.244338      675.35088    
    203000   303.78532      0.02745285     11.797748      753.69974     -56.554246      697.1455     
    204000   292.63633      0.02745285     8.4980464      726.0388      -59.846757      666.19204    
    205000   291.24466      0.02745285     14.505706      722.58603     -54.51472       668.07131    
    206000   304.79071      0.02745285     18.681423      756.19415     -58.952081      697.24207    
    207000   315.27787      0.02745285     15.350785      782.21308     -53.68727       728.52581    
    208000   299.77925      0.02745285     9.4435816      743.76057     -61.187163      682.57341    
    209000   281.24493      0.02745285     13.357779      697.77642     -59.192474      638.58395    
    210000   299.88441      0.02745285     19.719892      744.02149     -61.225187      682.79631    
    211000   318.52422      0.02745285     0.83524066     790.26738     -65.530368      724.73701    
    212000   301.86885      0.02745285     11.177765      748.94495     -67.509304      681.43564    
    213000   291.77062      0.02745285     18.821893      723.89095     -61.268405      662.62254    
    214000   300.49503      0.02745285     32.909347      745.53645     -60.122072      685.41438    
    215000   306.17858      0.02745285     6.9101223      759.63749     -63.496874      696.14062    
    216000   305.75687      0.02745285     11.175835      758.59121     -57.536095      701.05512    
    217000   299.10562      0.02745285     15.872812      742.08928     -59.371686      682.7176     
    218000   307.46711      0.02745285     38.640757      762.83439     -55.632833      707.20155    
    219000   304.2766       0.02745285     17.621964      754.91862     -57.464273      697.45435    
    220000   301.15853      0.02745285     2.1688748      747.18262     -53.57052       693.61211    
    221000   307.54382      0.02745285     13.722987      763.0247      -57.085965      705.93874    
    222000   297.82064      0.02745285     29.769438      738.90123     -59.500279      679.40095    
    223000   310.52064      0.02745285     16.947843      770.41026     -61.158883      709.25138    
    224000   300.28248      0.02745285    -3.6290797      745.0091      -63.156204      681.8529     
    225000   290.92568      0.02745285     12.108422      721.79464     -58.952096      662.84254    
    226000   302.37152      0.02745285     26.041477      750.19209     -62.222554      687.96953    
    227000   307.78489      0.02745285     15.043191      763.62281     -59.945471      703.67734    
    228000   297.24498      0.02745285     5.39486        737.473       -60.780022      676.69298    
    229000   289.36203      0.02745285     11.163816      717.91516     -67.226348      650.68881    
    230000   301.68119      0.02745285     34.641359      748.47934     -65.397446      683.08189    
    231000   300.74482      0.02745285     15.973089      746.15619     -61.154916      685.00128    
    232000   298.33623      0.02745285    -7.9862252      740.18042     -55.794238      684.38618    
    233000   295.75708      0.02745285     9.2968155      733.78148     -58.609976      675.1715     
    234000   284.87656      0.02745285     21.935821      706.7866      -55.419965      651.36663    
    235000   304.76788      0.02745285     16.088937      756.13752     -54.132847      702.00467    
    236000   314.24311      0.02745285     9.5188085      779.64583     -57.125739      722.52009    
    237000   286.47253      0.02745285     9.5377076      710.74625     -61.847711      648.89854    
    238000   295.91846      0.02745285     22.359076      734.18185     -66.04349       668.13836    
    239000   305.4938       0.02745285     16.51563       757.93855     -60.655064      697.28348    
    240000   312.96965      0.02745285     7.1329336      776.48633     -64.268493      712.21784    
    241000   286.80128      0.02745285     14.851571      711.56188     -62.862521      648.69936    
    242000   290.57391      0.02745285     20.498504      720.92189     -63.939649      656.98224    
    243000   287.34745      0.02745285     16.705382      712.91694     -59.836038      653.08091    
    244000   313.26853      0.02745285     14.645976      777.22785     -63.172952      714.0549     
    245000   309.57743      0.02745285     15.71526       768.07013     -55.269762      712.80037    
    246000   289.48473      0.02745285     14.578714      718.21959     -55.244309      662.97529    
    247000   300.99856      0.02745285     14.427044      746.78572     -56.909352      689.87637    
    248000   309.45981      0.02745285     17.479764      767.77832     -62.273842      705.50448    
    249000   306.26979      0.02745285     16.551752      759.8638      -60.663237      699.20056    
    250000   298.83928      0.02745285     4.9029003      741.4285      -60.951612      680.47689    
    251000   307.13179      0.02745285     13.808258      762.00244     -59.903522      702.09892    
    252000   311.16913      0.02745285     17.089208      772.01918     -52.592423      719.42676    
    253000   306.64503      0.02745285     14.358258      760.79476     -49.971006      710.82376    
    254000   291.85602      0.02745285     13.499393      724.10284     -51.643839      672.459      
    255000   291.21407      0.02745285     12.318935      722.51015     -51.415106      671.09504    
    256000   302.52256      0.02745285     13.423188      750.56682     -53.664265      696.90256    
    257000   311.01528      0.02745285     15.047723      771.63748     -53.42128       718.2162     
    258000   289.53416      0.02745285     14.799862      718.34223     -53.749142      664.59309    
    259000   292.64904      0.02745285     14.776085      726.07033     -50.439275      675.63106    
    260000   294.75145      0.02745285     15.519163      731.28648     -46.94307       684.34341    
    261000   309.59836      0.02745285     14.080811      768.12207     -45.571142      722.55093    
    262000   289.92382      0.02745285     11.843072      719.30898     -48.170301      671.13868    
    263000   296.08721      0.02745285     7.2297452      734.60053     -45.63436       688.96617    
    264000   312.94282      0.02745285     15.643128      776.41977     -46.239715      730.18006    
    265000   280.8302       0.02745285     18.411454      696.74745     -42.99326       653.75419    
    266000   280.66167      0.02745285     9.9896961      696.32934     -42.147688      654.18166    
    267000   305.84697      0.02745285     15.752136      758.81475     -42.944177      715.87058    
    268000   308.00551      0.02745285     16.37565       764.17016     -42.360781      721.80938    
    269000   292.14193      0.02745285     22.487788      724.81218     -43.794158      681.01802    
    270000   287.48613      0.02745285     12.266973      713.26102     -44.861518      668.39951    
    271000   303.75801      0.02745285     15.087977      753.63199     -39.755256      713.87673    
    272000   313.41535      0.02745285     22.293618      777.59212     -46.977956      730.61416    
    273000   286.63862      0.02745285     15.14306       711.15832     -48.882307      662.27601    
    274000   298.66107      0.02745285     11.019794      740.98634     -43.672215      697.31413    
    275000   313.36957      0.02745285     23.493914      777.47855     -45.949571      731.52898    
    276000   290.23913      0.02745285     13.606498      720.09127     -45.40822       674.68305    
    277000   304.27057      0.02745285     10.146012      754.90367     -48.924903      705.97877    
    278000   298.45949      0.02745285     18.809259      740.48622     -47.938828      692.5474     
    279000   286.91044      0.02745285     17.180628      711.83272     -51.127312      660.70541    
    280000   299.26897      0.02745285     8.1128586      742.49456     -49.599718      692.89484    
    281000   303.48924      0.02745285     6.738004       752.96518     -44.754516      708.21067    
    282000   293.46556      0.02745285     14.115427      728.09615     -47.415471      680.68068    
    283000   302.08432      0.02745285     13.646711      749.47953     -43.626838      705.8527     
    284000   310.56512      0.02745285     14.111599      770.52061     -44.737839      725.78278    
    285000   283.50909      0.02745285     11.641608      703.39386     -43.368649      660.02521    
    286000   292.53709      0.02745285     15.228309      725.79258     -44.539022      681.25355    
    287000   307.03841      0.02745285     15.052235      761.77077     -54.31916       707.45161    
    288000   297.918        0.02745285     15.320335      739.14278     -49.236324      689.90645    
    289000   296.1459       0.02745285     14.554552      734.74614     -52.455501      682.29064    
    290000   301.98058      0.02745285     15.407835      749.22214     -47.005694      702.21644    
    291000   300.12299      0.02745285     13.613991      744.6134      -42.406625      702.20678    
    292000   280.03686      0.02745285     13.854271      694.77918     -43.258284      651.5209     
    293000   299.9093       0.02745285     15.276864      744.08323     -44.630213      699.45302    
    294000   312.36189      0.02745285     16.216664      774.97846     -47.000452      727.978      
    295000   305.35445      0.02745285     13.937561      757.5928      -40.784601      716.8082     
    296000   299.03017      0.02745285     14.231243      741.9021      -52.145721      689.75638    
    297000   294.86823      0.02745285     12.850252      731.5762      -42.661828      688.91437    
    298000   299.88889      0.02745285     16.219124      744.0326      -43.026819      701.00578    
    299000   305.96678      0.02745285     16.543372      759.11202     -45.447842      713.66417    
    300000   310.44662      0.02745285     16.884883      770.22662     -39.557609      730.66901    
    301000   303.02328      0.02745285     15.162206      751.80911     -38.944057      712.86505    
    302000   294.51424      0.02745285     12.84037       730.69794     -43.077561      687.62038    
    303000   295.75223      0.02745285     12.754016      733.76944     -42.234539      691.5349     
    304000   314.52161      0.02745285     15.347734      780.33677     -40.035905      740.30087    
    305000   312.21593      0.02745285     15.567997      774.61633     -50.421204      724.19512    
    306000   292.49347      0.02745285     15.128983      725.68437     -49.075946      676.60842    
    307000   307.05672      0.02745285     13.974316      761.81619     -45.324073      716.49211    
    308000   305.2667       0.02745285     14.691318      757.37509     -47.457375      709.91772    
    309000   304.85141      0.02745285     16.340641      756.34475     -41.457257      714.8875     
    310000   303.42877      0.02745285     14.650642      752.81513     -41.902603      710.91253    
    311000   301.10759      0.02745285     14.088329      747.05624     -46.431886      700.62436    
    312000   298.81896      0.02745285     14.395285      741.37807     -38.176444      703.20162    
    313000   298.07894      0.02745285     13.633944      739.54207     -35.520726      704.02134    
    314000   299.76312      0.02745285     13.505743      743.72057     -39.358993      704.36158    
    315000   271.97564      0.02745285     12.708425      674.77905     -45.649222      629.12983    
    316000   297.55622      0.02745285     13.636653      738.24519     -51.026556      687.21863    
    317000   311.333        0.02745285     13.836415      772.42575     -48.883202      723.54255    
    318000   293.56026      0.02745285     9.0999972      728.33109     -48.141466      680.18962    
    319000   284.70064      0.02745285     14.782578      706.35014     -43.867634      662.48251    
    320000   307.09067      0.02745285     14.845289      761.90041     -46.788323      715.11209    
    321000   305.4836       0.02745285     16.650479      757.91323     -51.514058      706.39917    
    322000   295.82032      0.02745285     17.865552      733.93837     -46.145359      687.79301    
    323000   278.28544      0.02745285     10.673232      690.43386     -55.536047      634.89781    
    324000   303.11794      0.02745285     11.207029      752.04397     -50.614363      701.42961    
    325000   307.65747      0.02745285     15.589457      763.30666     -46.642581      716.66408    
    326000   295.48067      0.02745285     14.291659      733.09569     -49.917567      683.17813    
    327000   291.6525       0.02745285     11.894886      723.59789     -46.99198       676.60591    
    328000   314.33091      0.02745285     11.570833      779.86365     -48.050346      731.81331    
    329000   310.47337      0.02745285     14.342705      770.293       -45.280673      725.01233    
    330000   293.74191      0.02745285     14.137739      728.78178     -48.028898      680.75288    
    331000   297.68912      0.02745285     12.680639      738.5749      -46.790095      691.78481    
    332000   303.51678      0.02745285     13.820265      753.03349     -54.500033      698.53346    
    333000   299.68464      0.02745285     15.104015      743.52585     -51.8273        691.69855    
    334000   299.04344      0.02745285     22.070416      741.93501     -46.382778      695.55223    
    335000   297.93482      0.02745285     7.0203387      739.18451     -46.749823      692.43469    
    336000   308.47258      0.02745285     15.768413      765.32898     -46.292013      719.03697    
    337000   303.90527      0.02745285     17.590443      753.99735     -46.969173      707.02818    
    338000   290.76497      0.02745285     19.205178      721.3959      -48.916769      672.47913    
    339000   300.39123      0.02745285     14.823425      745.27891     -40.153431      705.12548    
    340000   299.51086      0.02745285     7.888085       743.0947      -44.916875      698.17783    
    341000   293.6156       0.02745285     12.806991      728.46841     -47.006361      681.46205    
    342000   294.35081      0.02745285     20.285173      730.29248     -44.840848      685.45163    
    343000   306.63786      0.02745285     15.743984      760.77698     -42.780355      717.99663    
    344000   305.83802      0.02745285     10.545969      758.79256     -49.34452       709.44804    
    345000   294.17976      0.02745285     18.820488      729.8681      -47.042286      682.82581    
    346000   290.22782      0.02745285     13.340124      720.06323     -47.821944      672.24129    
    347000   303.77055      0.02745285     11.306563      753.66311     -44.173917      709.48919    
    348000   296.40063      0.02745285     10.437398      735.37812     -44.276168      691.10196    
    349000   303.81147      0.02745285     12.451312      753.76462     -49.109989      704.65463    
    350000   294.44375      0.02745285     15.4703        730.52307     -46.316858      684.20621    
    351000   302.48101      0.02745285     13.041562      750.46373     -49.74602       700.71771    
    352000   308.78713      0.02745285     14.647693      766.10939     -41.68726       724.42213    
    353000   289.72691      0.02745285     14.077273      718.82045     -42.648142      676.17231    
    354000   300.18842      0.02745285     13.928837      744.77575     -42.077125      702.69862    
    355000   293.18723      0.02745285     13.34827       727.4056      -46.778439      680.62716    
    356000   295.59212      0.02745285     17.026573      733.3722      -42.391364      690.98083    
    357000   299.4628       0.02745285     19.363985      742.97547     -43.594648      699.38082    
    358000   297.34451      0.02745285     15.329556      737.71991     -48.155221      689.56469    
    359000   295.08572      0.02745285     6.6585087      732.11581     -50.985467      681.13034    
    360000   294.04492      0.02745285    -10.261255      729.53354     -54.155595      675.37795    
    361000   305.15462      0.02745285     16.663432      757.09703     -52.72736       704.36968    
    362000   298.33554      0.02745285     12.347817      740.17869     -48.262015      691.91668    
    363000   304.63891      0.02745285     14.202052      755.81753     -51.382094      704.43544    
    364000   311.24077      0.02745285     13.929489      772.19693     -49.573152      722.62378    
    365000   286.54         0.02745285     14.491869      710.91364     -48.058992      662.85465    
    366000   303.17939      0.02745285     14.841808      752.19641     -46.7589        705.43751    
    367000   292.71895      0.02745285     16.044338      726.24378     -43.525974      682.7178     
    368000   305.35748      0.02745285     17.108377      757.60032     -46.045519      711.5548     
    369000   302.13652      0.02745285     14.763055      749.60903     -48.581674      701.02736    
    370000   297.57198      0.02745285     15.191808      738.28428     -49.419676      688.86461    
    371000   302.44184      0.02745285     14.725274      750.36654     -51.671829      698.69471    
    372000   307.16535      0.02745285     13.61679       762.08571     -47.596062      714.48965    
    373000   297.62817      0.02745285     14.568045      738.42369     -43.738821      694.68486    
    374000   293.14651      0.02745285     13.977412      727.30457     -45.922582      681.38199    
    375000   300.72664      0.02745285     11.378289      746.11109     -52.241734      693.86935    
    376000   305.15546      0.02745285     15.365776      757.0991      -48.778548      708.32055    
    377000   302.41617      0.02745285     14.272391      750.30285     -54.689636      695.61321    
    378000   287.86126      0.02745285     6.4021201      714.19173     -53.297104      660.89462    
    379000   290.20639      0.02745285     15.285617      720.01005     -51.561129      668.44892    
    380000   302.80995      0.02745285     15.082569      751.27984     -51.476882      699.80295    
    381000   312.36562      0.02745285     17.79997       774.98772     -54.897814      720.0899     
    382000   305.06653      0.02745285     12.704352      756.87848     -50.617959      706.26052    
    383000   297.37757      0.02745285     13.52302       737.80195     -48.415304      689.38665    
    384000   312.63498      0.02745285     14.225203      775.65601     -49.08399       726.57202    
    385000   299.4668       0.02745285     9.0633119      742.98538     -48.748153      694.23723    
    386000   293.44289      0.02745285     13.674251      728.03991     -51.955045      676.08486    
    387000   297.42331      0.02745285     17.536635      737.91544     -48.277291      689.63815    
    388000   313.63255      0.02745285     14.70145       778.131       -52.749105      725.38189    
    389000   291.90426      0.02745285     12.496701      724.22251     -53.594123      670.62839    
    390000   293.27733      0.02745285     11.987642      727.62915     -62.135361      665.49379    
    391000   305.77663      0.02745285     13.326007      758.64025     -56.869455      701.77079    
    392000   306.22434      0.02745285     14.892876      759.75102     -57.636976      702.11404    
    393000   309.50116      0.02745285     12.522468      767.8809      -49.399328      718.48157    
    394000   293.31405      0.02745285     14.383373      727.72025     -50.583493      677.13675    
    395000   299.63442      0.02745285     12.263945      743.40126     -49.088958      694.3123     
    396000   289.67353      0.02745285     17.080186      718.68801     -49.438845      669.24917    
    397000   302.48474      0.02745285     13.091115      750.47298     -46.561793      703.91119    
    398000   305.06585      0.02745285     15.236509      756.87677     -46.90554       709.97123    
    399000   295.30357      0.02745285     15.029069      732.65631     -47.080955      685.57535    
    400000   299.63153      0.02745285     9.0411499      743.39408     -48.81953       694.57455    
    401000   307.29495      0.02745285     17.549382      762.40724     -54.194325      708.21291    
    402000   298.89219      0.02745285     17.851902      741.55976     -51.804449      689.75531    
    403000   292.44663      0.02745285     14.729828      725.56816     -52.483205      673.08496    
    404000   295.67225      0.02745285     11.576136      733.571       -52.654033      680.91696    
    405000   309.36655      0.02745285     13.921074      767.54693     -52.267856      715.27907    
    406000   306.46906      0.02745285     15.466978      760.35818     -48.593038      711.76514    
    407000   285.90918      0.02745285     13.315809      709.34855     -44.357636      664.99092    
    408000   285.85         0.02745285     15.429334      709.20173     -44.473677      664.72805    
    409000   298.21442      0.02745285     10.128576      739.87821     -45.041945      694.83626    
    410000   297.1177       0.02745285     12.138098      737.15719     -49.752556      687.40464    
    411000   293.12613      0.02745285     15.041564      727.25402     -48.010736      679.24328    
    412000   304.87601      0.02745285     17.354156      756.40578     -41.322266      715.08351    
    413000   311.68207      0.02745285     9.8755998      773.29182     -35.103787      738.18803    
    414000   299.92406      0.02745285     13.064846      744.11986     -33.782945      710.33692    
    415000   287.0871       0.02745285     18.088566      712.27101     -36.685452      675.58556    
    416000   309.61846      0.02745285     16.042791      768.17193     -37.520858      730.65108    
    417000   316.49702      0.02745285     12.983059      785.23784     -43.740068      741.49777    
    418000   297.31677      0.02745285    -1.3401553      737.65111     -40.955978      696.69513    
    419000   292.42195      0.02745285     17.618731      725.50693     -42.169608      683.33732    
    420000   298.1883       0.02745285     13.730008      739.81338     -47.231595      692.58178    
    421000   305.32467      0.02745285     3.1055125      757.51892     -42.633123      714.8858     
    422000   293.94162      0.02745285     15.576169      729.27727     -44.235256      685.04201    
    423000   300.93325      0.02745285     13.761292      746.62369     -45.766906      700.85679    
    424000   298.747        0.02745285    -7.109987       741.19954     -37.597108      703.60243    
    425000   292.02097      0.02745285     22.946832      724.51209     -40.124978      684.38711    
    426000   300.90852      0.02745285     39.468261      746.56233     -41.250165      705.31217    
    427000   308.70552      0.02745285     19.922708      765.90691     -37.84387       728.06304    
    428000   306.3699       0.02745285     4.7402123      760.11217     -42.906722      717.20544    
    429000   299.38039      0.02745285    -8.0873219      742.771       -42.805177      699.96582    
    430000   289.20826      0.02745285     17.131411      717.53366     -44.826042      672.70762    
    431000   307.62309      0.02745285     27.099537      763.22138     -43.313475      719.9079     
    432000   307.35892      0.02745285    -1.2703989      762.56595     -42.085037      720.48091    
    433000   292.24383      0.02745285     17.087649      725.065       -48.620951      676.44405    
    434000   295.12954      0.02745285     21.03066       732.22453     -53.570686      678.65385    
    435000   304.48012      0.02745285     22.817446      755.42357     -51.354347      704.06922    
    436000   308.6291       0.02745285     23.23814       765.7173      -47.180025      718.53727    
    437000   309.17044      0.02745285     16.526688      767.06039     -44.600513      722.45988    
    438000   310.80403      0.02745285    -9.8588384      771.11336     -47.700988      723.41237    
    439000   290.58403      0.02745285     17.29246       720.94699     -46.623868      674.32312    
    440000   289.26542      0.02745285     29.987645      717.67549     -43.650343      674.02514    
    441000   306.38502      0.02745285     14.703903      760.14967     -51.283211      708.86646    
    442000   299.9153       0.02745285     1.8289503      744.09812     -41.06149       703.03663    
    443000   290.75768      0.02745285     13.375471      721.37782     -47.407889      673.96993    
    444000   293.02327      0.02745285     19.301372      726.9988      -43.489351      683.50945    
    445000   304.29615      0.02745285     18.476465      754.96714     -42.581626      712.38552    
    446000   321.69239      0.02745285     10.224341      798.12769     -39.852669      758.27502    
    447000   293.07928      0.02745285     12.779161      727.13776     -50.222952      676.91481    
    448000   283.8736       0.02745285     14.301446      704.29823     -44.153625      660.14461    
    449000   303.39857      0.02745285     13.059572      752.74022     -47.482518      705.2577     
    450000   313.78494      0.02745285     11.053207      778.50908     -48.494203      730.01488    
    451000   300.70383      0.02745285     19.308685      746.05448     -55.3291        690.72538    
    452000   279.04161      0.02745285     13.176286      692.30993     -46.09035       646.21958    
    453000   290.39939      0.02745285     14.507055      720.48889     -50.10043       670.38846    
    454000   302.49751      0.02745285     15.795787      750.50467     -45.316759      705.18791    
    455000   313.2889       0.02745285     14.30372       777.27839     -46.144339      731.13405    
    456000   296.01442      0.02745285     13.381905      734.41994     -47.99964       686.4203     
    457000   301.36773      0.02745285     14.368983      747.70164     -43.793637      703.908      
    458000   305.88176      0.02745285     13.628912      758.90108     -39.707512      719.19356    
    459000   296.12918      0.02745285     16.34668       734.70466     -40.320646      694.38401    
    460000   293.59191      0.02745285     18.075779      728.40962     -42.544726      685.8649     
    461000   305.35112      0.02745285     14.411013      757.58455     -44.463461      713.12109    
    462000   303.86833      0.02745285     14.177594      753.90569     -43.027855      710.87784    
    463000   305.6471       0.02745285     16.207896      758.31889     -36.699348      721.61954    
    464000   299.75445      0.02745285     13.179495      743.69904     -45.966983      697.73206    
    465000   293.62565      0.02745285     18.933693      728.49334     -42.987423      685.50592    
    466000   306.29497      0.02745285     18.949281      759.92627     -45.236265      714.69       
    467000   305.40151      0.02745285     13.851938      757.70956     -40.299156      717.4104     
    468000   288.46776      0.02745285     14.122248      715.69647     -44.213098      671.48338    
    469000   292.32437      0.02745285     12.487076      725.26482     -45.360367      679.90446    
    470000   304.00586      0.02745285     23.263114      754.24691     -38.295386      715.95153    
    471000   302.73079      0.02745285     13.156602      751.08344     -43.057793      708.02565    
    472000   311.99249      0.02745285     14.548553      774.06197     -40.939215      733.12275    
    473000   309.13305      0.02745285     22.552076      766.96762     -42.908499      724.05912    
    474000   289.09429      0.02745285     14.610509      717.25089     -41.245147      676.00574    
    475000   295.19566      0.02745285     15.548557      732.38858     -43.347823      689.04076    
    476000   303.41802      0.02745285     7.8498759      752.78846     -41.307776      711.48069    
    477000   306.78573      0.02745285     12.210736      761.14385     -44.670761      716.47309    
    478000   304.86515      0.02745285     19.394445      756.37884     -39.369674      717.00917    
    479000   299.28933      0.02745285     18.101723      742.54507     -38.574049      703.97102    
    480000   307.89783      0.02745285     13.546661      763.90301     -41.395048      722.50796    
    481000   301.25879      0.02745285     10.209375      747.43136     -39.908509      707.52285    
    482000   298.72056      0.02745285     17.202206      741.13395     -42.918784      698.21517    
    483000   295.5239       0.02745285     7.9268614      733.20294     -43.070304      690.13263    
    484000   310.78882      0.02745285     14.291744      771.07562     -43.222959      727.85266    
    485000   296.65804      0.02745285     20.978394      736.01676     -42.000151      694.01661    
    486000   294.79226      0.02745285     11.229371      731.38772     -42.981988      688.40574    
    487000   303.03875      0.02745285     12.485851      751.84749     -45.89647       705.95102    
    488000   288.41806      0.02745285     17.317303      715.57315     -46.381839      669.19131    
    489000   297.33491      0.02745285     10.821159      737.6961      -42.966225      694.72987    
    490000   301.53043      0.02745285     15.203437      748.10532     -35.976839      712.12848    
    491000   305.21223      0.02745285     14.459704      757.23996     -36.329077      720.91088    
    492000   289.76576      0.02745285     15.623459      718.91684     -40.311955      678.60489    
    493000   299.90763      0.02745285     18.947389      744.07909     -41.169         702.91009    
    494000   301.7248       0.02745285     17.760121      748.58755     -42.432032      706.15552    
    495000   302.67318      0.02745285     13.814135      750.9405      -43.378726      707.56178    
    496000   305.63347      0.02745285     16.907633      758.28506     -42.24695       716.03811    
    497000   299.86776      0.02745285     20.209674      743.98019     -46.734111      697.24608    
    498000   289.3077       0.02745285     17.464549      717.78038     -35.743988      682.03639    
    499000   306.14328      0.02745285     13.664904      759.54992     -36.311866      723.23806    
    500000   293.7161       0.02745285     14.0543        728.71775     -39.68698       689.03077    
    501000   296.63352      0.02745285     18.069402      735.95593     -32.572684      703.38324    
    502000   304.73277      0.02745285     10.931937      756.0504      -40.19805       715.85235    
    503000   312.64107      0.02745285     9.7924494      775.6711      -41.734225      733.93688    
    504000   303.91821      0.02745285     16.719551      754.02945     -38.474378      715.55507    
    505000   292.30424      0.02745285     14.736714      725.21488     -41.252193      683.96268    
    506000   308.01488      0.02745285     14.630318      764.1934      -42.284025      721.90938    
    507000   304.06702      0.02745285     15.690266      754.39866     -41.162324      713.23633    
    508000   293.44188      0.02745285     10.839858      728.0374      -46.284594      681.75281    
    509000   303.49362      0.02745285     11.559126      752.97605     -50.061001      702.91505    
    510000   307.61394      0.02745285     15.590782      763.19866     -50.370047      712.82861    
    511000   301.9059       0.02745285     16.777026      749.03686     -50.30493       698.73193    
    512000   304.25196      0.02745285     14.800315      754.85751     -50.139344      704.71817    
    513000   296.09136      0.02745285     13.734703      734.61081     -46.971088      687.63973    
    514000   313.01168      0.02745285     13.204877      776.5906      -41.491386      735.09921    
    515000   296.6409       0.02745285     14.649061      735.97425     -49.038566      686.93569    
    516000   301.27343      0.02745285     14.70877       747.46768     -44.59515       702.87253    
    517000   284.76522      0.02745285     6.8242629      706.51037     -44.634587      661.87578    
    518000   292.68405      0.02745285     20.801603      726.15719     -52.872649      673.28454    
    519000   306.69351      0.02745285     19.692702      760.91506     -50.950821      709.96424    
    520000   305.03351      0.02745285     9.5656589      756.79654     -49.423431      707.37311    
    521000   291.62774      0.02745285     15.953768      723.53645     -52.610732      670.92572    
    522000   301.41987      0.02745285     15.983798      747.831       -43.26504       704.56596    
    523000   310.18486      0.02745285     15.595311      769.57719     -49.008526      720.56866    
    524000   293.75158      0.02745285     14.109119      728.80576     -49.071256      679.73451    
    525000   291.51619      0.02745285     14.87269       723.25971     -54.795291      668.46442    
    526000   309.39963      0.02745285     15.661399      767.62902     -47.702863      719.92616    
    527000   296.91338      0.02745285     15.212702      736.65029     -45.263215      691.38707    
    528000   300.66586      0.02745285     14.388552      745.96028     -39.507324      706.45296    
    529000   311.86958      0.02745285     13.156363      773.75704     -44.23906       729.51798    
    530000   294.36146      0.02745285     3.9143222      730.3189      -47.769811      682.54909    
    531000   295.39004      0.02745285     19.802335      732.87083     -49.066839      683.80399    
    532000   306.27794      0.02745285     11.519212      759.88401     -50.207836      709.67618    
    533000   293.31883      0.02745285     7.4838626      727.73211     -50.509241      677.22287    
    534000   303.98326      0.02745285     21.540138      754.19084     -49.941572      704.24927    
    535000   305.24438      0.02745285     0.97892087     757.31973     -46.674781      710.64495    
    536000   298.3178       0.02745285     2.5092837      740.13469     -42.356598      697.77809    
    537000   293.13461      0.02745285     8.5569592      727.27505     -53.98283       673.29221    
    538000   282.69391      0.02745285     15.272471      701.37139     -50.642386      650.72901    
    539000   299.87636      0.02745285     15.211086      744.0015      -49.96391       694.03759    
    540000   305.69887      0.02745285     13.036561      758.44732     -51.304379      707.14295    
    541000   299.46474      0.02745285     14.220592      742.98029     -49.150339      693.82995    
    542000   291.99164      0.02745285     14.487865      724.4393      -50.866424      673.57288    
    543000   307.81215      0.02745285     15.305001      763.69042     -52.070321      711.6201     
    544000   309.74457      0.02745285     15.20894       768.48481     -50.157644      718.32717    
    545000   297.56189      0.02745285     10.99925       738.25926     -50.700379      687.55888    
    546000   289.80127      0.02745285     4.3511729      719.00493     -52.975269      666.02966    
    547000   296.39587      0.02745285     13.384376      735.36633     -51.738311      683.62802    
    548000   302.06709      0.02745285     15.357967      749.43678     -55.327834      694.10895    
    549000   299.41008      0.02745285     12.526559      742.84467     -58.85094       683.99373    
    550000   300.24809      0.02745285     9.9316076      744.92379     -53.989136      690.93465    
    551000   299.57102      0.02745285     19.71108       743.24395     -47.540052      695.7039     
    552000   295.05563      0.02745285     17.532798      732.04114     -45.90845       686.13269    
    553000   305.05995      0.02745285     13.029602      756.86215     -47.256298      709.60586    
    554000   311.94024      0.02745285     12.571434      773.93235     -41.532992      732.39935    
    555000   303.14016      0.02745285     16.825959      752.09908     -37.616857      714.48222    
    556000   291.67947      0.02745285     13.735593      723.66481     -38.541728      685.12308    
    557000   299.72226      0.02745285     9.5561649      743.61919     -46.390311      697.22888    
    558000   303.88297      0.02745285     9.6976379      753.94201     -45.289477      708.65254    
    559000   305.96569      0.02745285     21.165941      759.10931     -45.375019      713.73429    
    560000   293.87272      0.02745285     15.3116        729.10633     -43.359399      685.74693    
    561000   301.42911      0.02745285     5.3828803      747.85394     -42.623138      705.2308     
    562000   307.44343      0.02745285     18.655704      762.77561     -38.99239       723.78323    
    563000   293.67917      0.02745285     22.342376      728.6261      -37.511342      691.11476    
    564000   295.25796      0.02745285     12.071228      732.54313     -39.95558       692.58755    
    565000   304.74459      0.02745285     10.022868      756.07973     -34.51197       721.56776    
    566000   299.4468       0.02745285     17.327409      742.93577     -37.179935      705.75584    
    567000   290.14067      0.02745285     24.913942      719.84701     -40.180092      679.66691    
    568000   303.42941      0.02745285     22.354666      752.81672     -42.703755      710.11296    
    569000   297.19442      0.02745285     15.42297       737.34755     -47.143343      690.20421    
    570000   294.08226      0.02745285     6.2407852      729.6262      -44.267805      685.3584     
    571000   312.56749      0.02745285     18.943014      775.48857     -39.379015      736.10955    
    572000   291.36232      0.02745285     20.064094      722.87795     -39.770955      683.107      
    573000   291.3938       0.02745285     15.535875      722.95604     -47.094607      675.86144    
    574000   300.00256      0.02745285     10.399141      744.31462     -46.592357      697.72226    
    575000   309.16059      0.02745285     16.817258      767.03594     -49.44136       717.59458    
    576000   311.04057      0.02745285     16.385612      771.70022     -51.896348      719.80387    
    577000   303.91915      0.02745285     15.454209      754.0318      -50.452687      703.57911    
    578000   297.65741      0.02745285    -6.9062808      738.49625     -49.12253       689.37372    
    579000   298.40694      0.02745285     16.756394      740.35585     -48.035986      692.31987    
    580000   304.41139      0.02745285     15.216192      755.25306     -51.71374       703.53932    
    581000   288.44626      0.02745285     17.753053      715.64313     -54.456549      661.18658    
    582000   296.33913      0.02745285     9.3537591      735.22556     -48.547327      686.67823    
    583000   317.64218      0.02745285     0.81076433     788.079       -50.468088      737.61091    
    584000   301.7475       0.02745285     18.613043      748.64387     -45.580814      703.06306    
    585000   299.05566      0.02745285     23.04968       741.96533     -40.088161      701.87717    
    586000   288.52549      0.02745285     15.017455      715.8397      -48.357112      667.48259    
    587000   300.98834      0.02745285     8.9503413      746.76037     -39.872811      706.88756    
    588000   308.8149       0.02745285     11.029116      766.17827     -44.715258      721.46301    
    589000   304.51996      0.02745285     19.330697      755.52241     -45.431636      710.09078    
    590000   304.86713      0.02745285     20.397963      756.38375     -41.529559      714.85419    
    591000   295.42059      0.02745285     15.253964      732.94663     -44.031381      688.91525    
    592000   294.11388      0.02745285     10.078049      729.70465     -44.649517      685.05514    
    593000   311.60252      0.02745285     16.135984      773.09445     -50.121276      722.97317    
    594000   307.49492      0.02745285     19.035194      762.90338     -46.447874      716.4555     
    595000   296.68476      0.02745285     14.758745      736.08306     -48.866185      687.21687    
    596000   290.47684      0.02745285     14.499841      720.68105     -46.975748      673.7053     
    597000   310.0498       0.02745285     13.36828       769.2421      -48.992773      720.24933    
    598000   302.06854      0.02745285     12.96132       749.44036     -51.19678       698.24358    
    599000   302.43679      0.02745285     6.5044548      750.35401     -49.100562      701.25345    
    600000   290.21661      0.02745285     3.2500768      720.03541     -54.58148       665.45393    
    601000   299.78207      0.02745285     17.429576      743.76759     -54.053477      689.71411    
    602000   315.60296      0.02745285     21.625594      783.01964     -47.384024      735.63562    
    603000   299.31853      0.02745285     10.287102      742.61752     -50.666729      691.95079    
    604000   290.30474      0.02745285     7.9727348      720.25406     -48.966282      671.28778    
    605000   299.56889      0.02745285     17.011226      743.23868     -51.865815      691.37287    
    606000   305.25321      0.02745285     20.628452      757.34163     -47.429252      709.91237    
    607000   310.71058      0.02745285     27.349658      770.8815      -57.524715      713.35679    
    608000   294.88568      0.02745285    -0.58146364     731.6195      -50.288988      681.33051    
    609000   299.52395      0.02745285     5.9875548      743.12717     -47.392924      695.73425    
    610000   298.78351      0.02745285     25.551415      741.29013     -52.423172      688.86696    
    611000   298.71976      0.02745285     22.257473      741.13197     -47.233839      693.89813    
    612000   297.68318      0.02745285     2.2326744      738.56017     -52.460688      686.09949    
    613000   295.17506      0.02745285     8.6143821      732.33745     -48.832349      683.5051     
    614000   307.50972      0.02745285     23.977351      762.9401      -42.769569      720.17053    
    615000   307.3711       0.02745285     14.017354      762.59617     -44.805996      717.79018    
    616000   290.33728      0.02745285     13.283019      720.3348      -43.178045      677.15675    
    617000   314.59017      0.02745285     43.268668      780.50689     -48.713292      731.79359    
    618000   307.83444      0.02745285     9.8782336      763.74574     -54.744486      709.00125    
    619000   309.97497      0.02745285     1.4403853      769.05644     -56.650306      712.40613    
    620000   296.62651      0.02745285     15.435699      735.93856     -56.745583      679.19297    
    621000   318.64212      0.02745285     19.391616      790.55988     -55.731406      734.82847    
    622000   298.1039       0.02745285     10.760682      739.60399     -59.647802      679.95619    
    623000   281.28159      0.02745285     22.923847      697.86738     -51.798248      646.06913    
    624000   299.97375      0.02745285     18.468563      744.24313     -50.952496      693.29064    
    625000   297.19679      0.02745285     3.7702923      737.35342     -54.207088      683.14633    
    626000   302.30294      0.02745285     16.157226      750.02192     -53.743381      696.27853    
    627000   306.92793      0.02745285     25.19949       761.49665     -57.13429       704.36236    
    628000   293.44431      0.02745285     9.576203       728.04343     -56.150048      671.89338    
    629000   293.46138      0.02745285     9.5200854      728.08576     -53.536237      674.54953    
    630000   300.70924      0.02745285     22.391313      746.06791     -50.678342      695.38956    
    631000   303.21533      0.02745285     11.837866      752.28558     -51.698245      700.58734    
    632000   289.45675      0.02745285    -4.2841066      718.15018     -47.096605      671.05357    
    633000   288.6923       0.02745285     13.215453      716.25355     -46.115044      670.13851    
    634000   305.22066      0.02745285     29.93669       757.26088     -45.916801      711.34408    
    635000   314.18293      0.02745285     6.6039585      779.4965      -45.700228      733.79627    
    636000   288.43436      0.02745285     9.6793455      715.6136      -44.604487      671.00911    
    637000   292.56762      0.02745285     18.218407      725.86834     -41.307946      684.56039    
    638000   303.12638      0.02745285     28.738655      752.0649      -40.250596      711.81431    
    639000   312.61838      0.02745285     7.7261808      775.61481     -51.141964      724.47284    
    640000   308.28519      0.02745285     5.7442631      764.86406     -47.966153      716.89791    
    641000   299.07414      0.02745285     0.033842578    742.01118     -45.659573      696.35161    
    642000   299.99377      0.02745285     20.939472      744.29282     -42.7897        701.50313    
    643000   298.36273      0.02745285     24.326291      740.24615     -51.74491       688.50124    
    644000   302.67108      0.02745285     17.86533       750.9353      -50.263745      700.67155    
    645000   308.57783      0.02745285     9.2404828      765.59011     -46.481673      719.10844    
    646000   287.93393      0.02745285     12.991587      714.37202     -48.213965      666.15805    
    647000   290.82121      0.02745285     20.816291      721.53544     -48.157764      673.37768    
    648000   310.60502      0.02745285     14.474408      770.61963     -47.160811      723.45882    
    649000   298.4018       0.02745285     11.982034      740.34309     -48.017417      692.32568    
    650000   292.40981      0.02745285     20.349431      725.47679     -45.662872      679.81392    
    651000   286.75937      0.02745285     9.4578549      711.45791     -49.28181       662.1761     
    652000   287.92419      0.02745285     13.897963      714.34785     -50.436296      663.91155    
    653000   310.93435      0.02745285     15.813401      771.4367      -51.344788      720.09191    
    654000   308.04387      0.02745285     13.734484      764.26532     -51.404548      712.86077    
    655000   303.03399      0.02745285     13.765255      751.83569     -50.903215      700.93247    
    656000   277.4697       0.02745285     14.101437      688.40996     -45.786679      642.62328    
    657000   299.36273      0.02745285     12.432146      742.72719     -50.484417      692.24277    
    658000   306.43734      0.02745285     13.492382      760.27948     -57.108382      703.1711     
    659000   306.62121      0.02745285     15.210875      760.73566     -52.060215      708.67545    
    660000   296.64677      0.02745285     13.14182       735.98881     -51.240677      684.74813    
    661000   303.0921       0.02745285     13.051142      751.97985     -45.376722      706.60313    
    662000   317.34574      0.02745285     17.995201      787.34353     -45.346342      741.99719    
    663000   298.7802       0.02745285     13.284171      741.28192     -44.195161      697.08676    
    664000   296.324        0.02745285     14.166349      735.188       -46.70108       688.48692    
    665000   294.56865      0.02745285     14.803508      730.83295     -45.786441      685.04651    
    666000   309.19439      0.02745285     15.288737      767.11979     -52.429306      714.69049    
    667000   301.44238      0.02745285     19.058987      747.88686     -46.315174      701.57169    
    668000   312.59672      0.02745285     2.4136049      775.56108     -57.718479      717.8426     
    669000   298.10335      0.02745285     14.307224      739.60264     -54.737563      684.86508    
    670000   295.28994      0.02745285     29.069809      732.62249     -51.45746       681.16502    
    671000   307.82908      0.02745285     10.386843      763.73244     -52.327157      711.40528    
    672000   307.81441      0.02745285     8.2578713      763.69605     -54.715633      708.98041    
    673000   294.99876      0.02745285     14.795197      731.90005     -48.178955      683.7211     
    674000   291.01697      0.02745285     16.382821      722.02112     -46.352435      675.66869    
    675000   312.051        0.02745285     10.609419      774.20714     -48.544948      725.66219    
    676000   291.52371      0.02745285     14.367026      723.27836     -47.345692      675.93266    
    677000   291.6544       0.02745285     23.633473      723.60262     -50.82224       672.78038    
    678000   319.69317      0.02745285     16.971168      793.16757     -52.259327      740.90824    
    679000   303.07096      0.02745285     15.402647      751.92741     -49.913483      702.01393    
    680000   293.34179      0.02745285     9.7817175      727.78906     -45.559455      682.2296     
    681000   307.66725      0.02745285     13.513853      763.33092     -47.96048       715.37044    
    682000   304.19819      0.02745285     28.149534      754.7241      -48.476239      706.24786    
    683000   290.27053      0.02745285     23.969296      720.16918     -49.657015      670.51216    
    684000   290.83456      0.02745285     9.3581367      721.56856     -49.49752       672.07104    
    685000   293.81064      0.02745285     12.890772      728.95231     -47.306538      681.64577    
    686000   301.29654      0.02745285     31.911596      747.52501     -47.144641      700.38037    
    687000   298.96128      0.02745285     20.907054      741.73117     -42.516714      699.21446    
    688000   298.3876       0.02745285     14.454031      740.30787     -42.73137       697.5765     
    689000   302.98424      0.02745285     10.911063      751.71226     -43.92794       707.78432    
    690000   304.51718      0.02745285     18.81249       755.51551     -48.060279      707.45524    
    691000   295.36603      0.02745285     0.92858513     732.81126     -51.080588      681.73067    
    692000   300.00882      0.02745285     14.423512      744.33014     -45.991424      698.33872    
    693000   299.15288      0.02745285     17.705618      742.20653     -48.641907      693.56462    
    694000   300.23283      0.02745285     10.144848      744.88592     -45.17974       699.70618    
    695000   308.41038      0.02745285     11.993969      765.17465     -45.623284      719.55136    
    696000   306.61843      0.02745285     18.787265      760.72877     -46.504724      714.22404    
    697000   300.15286      0.02745285     25.55353       744.68751     -43.054123      701.63339    
    698000   297.07548      0.02745285     17.080303      737.05245     -46.180579      690.87187    
    699000   303.42255      0.02745285     9.5852402      752.79972     -53.536762      699.26296    
    700000   295.01015      0.02745285     19.302277      731.92831     -50.927631      681.00068    
    701000   294.96194      0.02745285     11.379677      731.8087      -52.444791      679.36391    
    702000   306.29716      0.02745285     11.544655      759.9317      -51.973363      707.95834    
    703000   293.44794      0.02745285     27.697857      728.05244     -45.960816      682.09162    
    704000   286.41584      0.02745285     11.317758      710.60559     -51.691657      658.91394    
    705000   299.46835      0.02745285     11.070712      742.98922     -47.571052      695.41817    
    706000   305.10183      0.02745285     16.38024       756.96605     -47.588198      709.37785    
    707000   284.41937      0.02745285     12.902641      705.65229     -46.775223      658.87707    
    708000   285.22954      0.02745285     11.94685       707.66235     -41.472073      666.19027    
    709000   318.60555      0.02745285     16.023243      790.46915     -52.070718      738.39843    
    710000   299.36298      0.02745285     17.169556      742.72781     -50.178821      692.54899    
    711000   293.5265       0.02745285     14.136235      728.24733     -47.305093      680.94223    
    712000   303.36643      0.02745285     14.287856      752.66048     -43.983008      708.67747    
    713000   306.12049      0.02745285     15.261771      759.49337     -45.573394      713.91998    
    714000   288.62105      0.02745285     13.831118      716.07677     -40.203592      675.87318    
    715000   295.60857      0.02745285     12.695118      733.413       -42.299085      691.11392    
    716000   277.58759      0.02745285     10.284574      688.70245     -50.406203      638.29625    
    717000   287.04203      0.02745285     11.274954      712.15919     -49.240951      662.91824    
    718000   308.61583      0.02745285     15.212033      765.68437     -47.659866      718.02451    
    719000   302.63057      0.02745285     13.533764      750.83479     -48.776128      702.05866    
    720000   302.36113      0.02745285     16.208165      750.1663      -44.94463       705.22167    
    721000   296.73046      0.02745285     16.872237      736.19644     -45.571105      690.62534    
    722000   299.93056      0.02745285     8.975414       744.136       -48.668193      695.46781    
    723000   306.65669      0.02745285     7.2977691      760.8237      -45.599219      715.22448    
    724000   300.14903      0.02745285     14.353234      744.67801     -46.889918      697.78809    
[...]
   3823000   294.40241      0.02745285     13.999222      730.42051     -40.977564      689.44294    
   3824000   295.21811      0.02745285     14.356935      732.44426     -41.153585      691.29067    
   3825000   313.6001       0.02745285     14.147975      778.0505      -43.325361      734.72513    
   3826000   303.00946      0.02745285     13.186397      751.77483     -39.100037      712.6748     
   3827000   294.80348      0.02745285     14.550686      731.41557     -40.101529      691.31404    
   3828000   304.47997      0.02745285     15.68985       755.4232      -44.777557      710.64565    
   3829000   307.23911      0.02745285     14.177991      762.2687      -42.492407      719.7763     
   3830000   292.91086      0.02745285     14.277106      726.71991     -45.432756      681.28715    
   3831000   309.42376      0.02745285     21.14893       767.68888     -42.257958      725.43092    
   3832000   307.34946      0.02745285     11.588645      762.54248     -45.412386      717.13009    
   3833000   293.0687       0.02745285     14.462038      727.11152     -43.844326      683.2672     
   3834000   310.40773      0.02745285     20.531468      770.13014     -42.281918      727.84822    
   3835000   311.63142      0.02745285     11.745679      773.16614     -36.579485      736.58666    
   3836000   300.39054      0.02745285     11.425432      745.2772      -40.494267      704.78293    
   3837000   289.4921       0.02745285     15.718658      718.23788     -39.60957       678.62831    
   3838000   298.90186      0.02745285     18.66655       741.58376     -48.148851      693.43491    
   3839000   305.03901      0.02745285     6.2006264      756.8102      -51.850484      704.95972    
   3840000   295.82472      0.02745285     13.345471      733.9493      -49.400138      684.54916    
   3841000   305.66806      0.02745285     28.707701      758.37087     -49.961851      708.40902    
   3842000   307.2046       0.02745285     29.419872      762.18307     -45.89248       716.29059    
   3843000   302.29861      0.02745285     5.8804865      750.01118     -43.513078      706.49811    
   3844000   281.58918      0.02745285     10.771679      698.63052     -49.961304      648.66921    
   3845000   300.35057      0.02745285     20.302702      745.17804     -46.978775      698.19927    
   3846000   302.42239      0.02745285    -0.74024997     750.31827     -46.274828      704.04345    
   3847000   301.7645       0.02745285     24.324877      748.68605     -46.036995      702.64905    
   3848000   299.64428      0.02745285     23.868332      743.42571     -47.743811      695.6819     
   3849000   319.26459      0.02745285     16.385022      792.10426     -49.246772      742.85748    
   3850000   299.72238      0.02745285    -3.5367906      743.61949     -49.076451      694.54304    
   3851000   286.15093      0.02745285     36.320985      709.94835     -43.322749      666.6256     
   3852000   308.9515       0.02745285     13.39853       766.51718     -45.386606      721.13058    
   3853000   301.19826      0.02745285     5.6393074      747.28118     -42.954602      704.32658    
   3854000   296.65016      0.02745285     11.197923      735.99722     -44.168064      691.82915    
   3855000   305.50093      0.02745285     19.050257      757.95622     -42.771819      715.18441    
   3856000   302.70604      0.02745285     21.315541      751.02203     -37.614584      713.40745    
   3857000   300.54831      0.02745285    -3.8802175      745.66864     -43.395556      702.27308    
   3858000   294.38982      0.02745285     7.5031789      730.38927     -44.813371      685.57589    
   3859000   299.10599      0.02745285     30.99545       742.09021     -44.466963      697.62325    
   3860000   312.96267      0.02745285     0.12354441     776.46902     -45.909469      730.55955    
   3861000   299.09434      0.02745285     0.44327301     742.06129     -42.668446      699.39285    
   3862000   279.70445      0.02745285     3.3792792      693.95445     -41.62361       652.33084    
   3863000   301.25423      0.02745285     31.813052      747.42004     -38.008516      709.41152    
   3864000   318.18129      0.02745285    -11.902393      789.41656     -40.759183      748.65738    
   3865000   297.6989       0.02745285    -3.8061533      738.59918     -40.093843      698.50534    
   3866000   298.07773      0.02745285     28.012907      739.53906     -41.325754      698.2133     
   3867000   299.17771      0.02745285    -3.964361       742.26814     -43.780041      698.4881     
   3868000   293.12275      0.02745285    -5.9435536      727.24563     -34.758288      692.48734    
   3869000   292.64566      0.02745285     16.349834      726.06195     -38.111519      687.95043    
   3870000   298.69649      0.02745285     19.850441      741.07422     -40.06402       701.0102     
   3871000   305.60844      0.02745285     23.604375      758.22296     -40.218429      718.00453    
   3872000   307.51339      0.02745285     17.879172      762.94921     -46.394889      716.55432    
   3873000   287.61775      0.02745285     4.3375938      713.58756     -45.958826      667.62873    
   3874000   293.80697      0.02745285     20.042602      728.9432      -47.304661      681.63854    
   3875000   288.72584      0.02745285     20.78798       716.33677     -48.183002      668.15376    
   3876000   305.54661      0.02745285     15.436999      758.06956     -48.694688      709.37487    
   3877000   301.1201       0.02745285     4.5332762      747.08727     -44.977568      702.1097     
   3878000   285.4827       0.02745285     14.785626      708.29045     -45.090542      663.19991    
   3879000   299.60076      0.02745285     14.924621      743.31776     -44.08347       699.23429    
   3880000   306.98937      0.02745285     15.994993      761.64908     -46.395357      715.25372    
   3881000   302.9748       0.02745285     14.128195      751.68882     -47.987463      703.70136    
   3882000   286.22104      0.02745285     13.736419      710.12228     -46.315761      663.80652    
   3883000   301.67456      0.02745285     17.894578      748.4629      -51.266879      697.19602    
   3884000   302.78734      0.02745285     15.513152      751.22373     -45.325269      705.89846    
   3885000   300.86192      0.02745285     15.646817      746.44672     -47.586425      698.86029    
   3886000   298.12973      0.02745285     13.361311      739.66808     -44.890202      694.77787    
   3887000   296.8886       0.02745285     10.759301      736.5888      -45.322939      691.26586    
   3888000   303.72648      0.02745285     12.431857      753.55378     -39.975295      713.57848    
   3889000   296.66051      0.02745285     19.332819      736.02291     -46.494504      689.52841    
   3890000   305.35514      0.02745285     12.907857      757.59453     -43.481308      714.11322    
   3891000   296.74307      0.02745285     11.814344      736.22774     -48.115659      688.11208    
   3892000   314.91918      0.02745285     15.910686      781.32316     -43.767247      737.55592    
   3893000   303.87516      0.02745285     14.213243      753.92265     -43.192984      710.72967    
   3894000   280.24462      0.02745285     11.367005      695.29462     -36.867748      658.42687    
   3895000   298.3065       0.02745285     12.356143      740.10665     -37.484977      702.62167    
   3896000   302.87336      0.02745285     6.4342586      751.43716     -40.097647      711.33952    
   3897000   306.6424       0.02745285     14.040784      760.78826     -40.997251      719.79101    
   3898000   302.37242      0.02745285     17.230894      750.1943      -42.103392      708.09091    
   3899000   285.98898      0.02745285     10.637365      709.54655     -41.046045      668.50051    
   3900000   292.78803      0.02745285     10.251388      726.41516     -36.310006      690.10516    
   3901000   309.48374      0.02745285     14.612683      767.83768     -40.931864      726.90582    
   3902000   301.17268      0.02745285     14.624791      747.21771     -40.104957      707.11275    
   3903000   290.00994      0.02745285     14.169531      719.52266     -36.795561      682.7271     
   3904000   306.22232      0.02745285     14.261951      759.74601     -44.08183       715.66418    
   3905000   305.34581      0.02745285     14.377326      757.57137     -40.58414       716.98723    
   3906000   292.42563      0.02745285     19.036524      725.51605     -43.670393      681.84566    
   3907000   294.36051      0.02745285    -4.5553031      730.31654     -42.250634      688.0659     
   3908000   309.63882      0.02745285     12.362561      768.22246     -44.792378      723.43008    
   3909000   298.6114       0.02745285     28.619529      740.86311     -47.450446      693.41267    
   3910000   290.81873      0.02745285     11.464353      721.52927     -53.245181      668.28409    
   3911000   295.91305      0.02745285     12.996181      734.16844     -46.901777      687.26667    
   3912000   315.8627       0.02745285     7.4535764      783.66407     -45.471873      738.19219    
   3913000   293.59343      0.02745285     20.50049       728.41339     -37.146149      691.26724    
   3914000   302.97891      0.02745285     16.507366      751.69903     -36.840179      714.85885    
   3915000   300.17825      0.02745285     14.109466      744.75052     -38.661533      706.08899    
   3916000   296.72349      0.02745285     14.30582       736.17916     -38.030183      698.14898    
   3917000   319.50693      0.02745285     14.256428      792.70551     -41.332356      751.37315    
   3918000   305.59006      0.02745285     15.156691      758.17735     -46.572553      711.6048     
   3919000   296.63942      0.02745285     15.767212      735.97059     -48.605665      687.36492    
   3920000   291.87789      0.02745285     13.672578      724.15708     -47.725992      676.43109    
   3921000   315.84775      0.02745285     15.25744       783.62696     -51.894973      731.73199    
   3922000   305.6619       0.02745285     13.864404      758.3556      -50.467886      707.88771    
   3923000   293.47262      0.02745285     17.000995      728.11366     -48.890714      679.22294    
   3924000   297.98776      0.02745285     16.164332      739.31586     -50.782439      688.53342    
   3925000   306.51701      0.02745285     16.211966      760.47716     -41.483214      718.99395    
   3926000   298.88181      0.02745285     8.5922475      741.53401     -46.786178      694.74783    
   3927000   296.07723      0.02745285     14.807955      734.57578     -47.2304        687.34538    
   3928000   285.1373       0.02745285     17.896816      707.4335      -41.977356      665.45615    
   3929000   301.25998      0.02745285     14.523668      747.43431     -46.983984      700.45033    
   3930000   312.13172      0.02745285     15.371086      774.40741     -45.373629      729.03378    
   3931000   302.16201      0.02745285     15.664113      749.67227     -42.909698      706.76257    
   3932000   309.16082      0.02745285     11.99902       767.03652     -40.549813      726.48671    
   3933000   302.25559      0.02745285     5.600938       749.90445     -38.571311      711.33314    
   3934000   298.61594      0.02745285     14.874344      740.87437     -34.706734      706.16764    
   3935000   303.35848      0.02745285     14.263876      752.64075     -39.996673      712.64407    
   3936000   303.68873      0.02745285     13.261445      753.4601      -47.00825       706.45185    
   3937000   314.28382      0.02745285     17.903552      779.74682     -42.892119      736.8547     
   3938000   302.3693       0.02745285     14.947138      750.18657     -50.766717      699.41985    
   3939000   283.00389      0.02745285     13.420994      702.14045     -51.108893      651.03156    
   3940000   303.78543      0.02745285     15.362162      753.70004     -52.793626      700.90641    
   3941000   310.89447      0.02745285     14.729188      771.33775     -45.597076      725.74067    
   3942000   304.97425      0.02745285     13.372026      756.64953     -47.122493      709.52704    
   3943000   287.04796      0.02745285     13.245547      712.17389     -44.769539      667.40436    
   3944000   298.41675      0.02745285     14.415098      740.38018     -50.357901      690.02228    
   3945000   307.32794      0.02745285     14.958229      762.4891      -52.400073      710.08903    
   3946000   293.64366      0.02745285     9.3270332      728.53802     -50.020397      678.51762    
   3947000   291.60158      0.02745285     17.616243      723.47155     -55.069805      668.40175    
   3948000   308.19876      0.02745285     28.504381      764.64963     -56.330655      708.31897    
   3949000   302.41139      0.02745285     11.615792      750.29098     -55.760512      694.53047    
   3950000   288.40322      0.02745285     11.915711      715.53633     -50.339901      665.19643    
   3951000   285.92291      0.02745285     13.532394      709.38263     -54.263273      655.11936    
   3952000   299.34223      0.02745285     16.843937      742.67632     -57.304074      685.37224    
   3953000   285.79918      0.02745285     10.095753      709.07564     -55.411511      653.66413    
   3954000   291.62912      0.02745285     14.40161       723.5399      -49.163556      674.37634    
   3955000   300.24792      0.02745285     14.860537      744.92336     -49.712738      695.21063    
   3956000   320.76553      0.02745285     15.316163      795.82813     -44.571283      751.25685    
   3957000   297.53478      0.02745285     12.703617      738.192       -46.600527      691.59147    
   3958000   291.73168      0.02745285     14.025859      723.79434     -46.944222      676.85012    
   3959000   302.5492       0.02745285     16.7563        750.63289     -45.205896      705.427      
   3960000   305.34821      0.02745285     7.8818367      757.57733     -43.243857      714.33347    
   3961000   298.78747      0.02745285     18.634463      741.29995     -39.131579      702.16837    
   3962000   314.0808       0.02745285     11.296546      779.24311     -47.967634      731.27548    
   3963000   284.79503      0.02745285     9.1565685      706.58431     -44.164384      662.41992    
   3964000   302.07328      0.02745285     19.160119      749.45214     -44.583686      704.86845    
   3965000   303.45485      0.02745285     18.435321      752.87986     -50.919536      701.96032    
   3966000   300.8913       0.02745285     4.0513883      746.51961     -45.287072      701.23254    
   3967000   290.68101      0.02745285     15.381497      721.18761     -54.314374      666.87323    
   3968000   313.97903      0.02745285     17.962783      778.99062     -48.789139      730.20148    
   3969000   299.41423      0.02745285     13.314366      742.85497     -42.724188      700.13078    
   3970000   291.31798      0.02745285     4.3543091      722.76793     -43.378464      679.38947    
   3971000   310.28802      0.02745285     23.780949      769.83314     -42.463658      727.36948    
   3972000   306.40581      0.02745285     35.585226      760.20126     -45.541644      714.65962    
   3973000   302.31791      0.02745285     16.634041      750.05906     -43.42032       706.63874    
   3974000   308.47428      0.02745285    -5.9309555      765.33318     -49.804807      715.52837    
   3975000   298.99726      0.02745285     14.429989      741.82044     -46.414344      695.40609    
   3976000   290.64046      0.02745285     26.242949      721.08698     -49.887056      671.19993    
   3977000   308.81922      0.02745285     21.154576      766.18901     -48.117762      718.07125    
   3978000   311.49181      0.02745285     7.059205       772.81978     -40.138969      732.68081    
   3979000   288.51679      0.02745285     16.310954      715.8181      -42.137569      673.68053    
   3980000   301.99056      0.02745285     19.318107      749.24689     -44.622906      704.62399    
   3981000   312.51791      0.02745285     8.6792617      775.36556     -42.643075      732.72248    
   3982000   291.45221      0.02745285     11.749494      723.10096     -46.362817      676.73814    
   3983000   287.84229      0.02745285     40.058391      714.14465     -46.706984      667.43767    
   3984000   301.78627      0.02745285    -7.0130334      748.74005     -48.344061      700.39599    
   3985000   307.44074      0.02745285     7.4450278      762.76896     -47.388578      715.38038    
   3986000   300.52287      0.02745285     18.065433      745.60552     -47.931601      697.67392    
   3987000   302.7742       0.02745285     17.796124      751.19113     -45.181551      706.00958    
   3988000   300.59914      0.02745285     16.841793      745.79474     -45.320067      700.47468    
   3989000   300.79942      0.02745285     11.165427      746.29165     -39.951921      706.33973    
   3990000   295.81012      0.02745285     17.990822      733.91307     -46.492798      687.42027    
   3991000   313.82982      0.02745285     17.53066       778.62044     -44.473926      734.14651    
   3992000   300.26137      0.02745285     5.9033272      744.95674     -42.34396       702.61278    
   3993000   296.23681      0.02745285     11.199685      734.97168     -45.601823      689.36986    
   3994000   310.74389      0.02745285     22.607363      770.96415     -46.255368      724.70879    
   3995000   308.30388      0.02745285     18.755979      764.91042     -45.618235      719.29219    
   3996000   303.3066       0.02745285     12.896419      752.51204     -39.938902      712.57314    
   3997000   306.96783      0.02745285     11.594041      761.59564     -41.79164       719.804      
   3998000   304.24979      0.02745285     28.427848      754.85213     -45.367282      709.48484    
   3999000   298.96204      0.02745285     7.2928558      741.73306     -33.377359      708.3557     
   4000000   293.0466       0.02745285     12.304653      727.05669     -36.026387      691.0303     
Loop time of 5384.21 on 1 procs for 4000000 steps with 1500 atoms

Performance: 16.047 ns/day, 1.496 hours/ns, 742.913 timesteps/s, 1.114 Matom-step/s
100.0% CPU use with 1 MPI tasks x 1 OpenMP threads

MPI task timing breakdown:
Section |  min time  |  avg time  |  max time  |%varavg| %total
---------------------------------------------------------------
Pair    | 493.16     | 493.16     | 493.16     |   0.0 |  9.16
Bond    | 103.4      | 103.4      | 103.4      |   0.0 |  1.92
Kspace  | 4204.7     | 4204.7     | 4204.7     |   0.0 | 78.09
Neigh   | 0.029965   | 0.029965   | 0.029965   |   0.0 |  0.00
Comm    | 25.968     | 25.968     | 25.968     |   0.0 |  0.48
Output  | 0.10506    | 0.10506    | 0.10506    |   0.0 |  0.00
Modify  | 542.18     | 542.18     | 542.18     |   0.0 | 10.07
Other   |            | 14.69      |            |       |  0.27

Nlocal:           1500 ave        1500 max        1500 min
Histogram: 1 0 0 0 0 0 0 0 0 0
Nghost:           1557 ave        1557 max        1557 min
Histogram: 1 0 0 0 0 0 0 0 0 0
Neighs:              0 ave           0 max           0 min
Histogram: 1 0 0 0 0 0 0 0 0 0

Total # of neighbors = 0
Ave neighs/atom = 0
Ave special neighs/atom = 2
Neighbor list builds = 15530
Dangerous builds = 0
write_data	last_conf.data pair ij
System init for write_data ...
PPPM initialization ...
  using 12-bit tables for long-range coulomb (src/kspace.cpp:342)
  G vector (1/distance) = 0.16792325
  grid = 24 24 24
  stencil order = 5
  estimated absolute RMS force accuracy = 0.038443853
  estimated relative force accuracy = 0.00011577252
  using double precision FFTW3
  3d grid and FFT values/proc = 24389 13824
Generated 1 of 1 mixed pair_coeff terms from arithmetic mixing rule
Total wall time: 1:29:44
