LAMMPS data file via write_data, version 29 Aug 2024, timestep = 0, units = real

1500 atoms
2 atom types
1000 bonds
1 bond types
500 angles
1 angle types

0 95 xlo xhi
0 95 ylo yhi
0 95 zlo zhi

Masses

1 12.0107
2 15.9994

PairIJ Coeffs # lj/cut/coul/long/gpu

1 1 0.053649 2.8 12
1 2 0.0917684 2.925 12
2 2 0.156973 3.05 12

Bond Coeffs # harmonic

1 0 1.16

Angle Coeffs # harmonic

1 0 180

Atoms # full

1 1 1 0.7 6.999283783137465 26.962543191370806 9.463417369156804 0 0 0
2 1 2 -0.35 5.99162303889525 27.200229217004363 8.940229852360247 0 0 0
3 1 2 -0.35 8.00694452737968 26.724857165737248 9.986604885953362 0 0 0
4 2 1 0.7 21.655723418414464 22.7434932918956 64.89175688935991 0 0 0
5 2 2 -0.35 22.003043274544048 23.24406038270781 63.90463911263115 0 0 0
6 2 2 -0.35 21.30840356228488 22.24292620108339 65.87887466608866 0 0 0
7 3 1 0.7 35.75803947204633 15.369406682611167 8.6181146458807 0 0 0
8 3 2 -0.35 35.29543061709335 14.305643467774658 8.617181865204667 0 0 0
9 3 2 -0.35 36.2206483269993 16.433169897447677 8.619047426556733 0 0 0
10 4 1 0.7 64.65285331693146 10.505697666902885 59.260687636798565 0 0 0
11 4 2 -0.35 63.56779399917245 10.704741605054046 59.61933479994033 0 0 0
12 4 2 -0.35 65.73791263469046 10.306653728751723 58.9020404736568 0 0 0
13 5 1 0.7 14.37711167353071 51.115897030623586 19.88139369053831 0 0 0
14 5 2 -0.35 14.204452898486288 51.40087548014382 20.992508549906685 0 0 0
15 5 2 -0.35 14.549770448575131 50.830918581103354 18.770278831169936 0 0 0
16 6 1 0.7 31.583756877381244 63.2018381465235 38.29372862041636 0 0 0
17 6 2 -0.35 30.49628269299183 63.37539779171376 37.92920571599469 0 0 0
18 6 2 -0.35 32.67123106177066 63.02827850133324 38.65825152483803 0 0 0
19 7 1 0.7 72.69692333773565 22.19053732333264 81.36079325171224 0 0 0
20 7 2 -0.35 71.67555073817049 22.453213439579965 80.87767911322038 0 0 0
21 7 2 -0.35 73.71829593730082 21.927861207085318 81.8439073902041 0 0 0
22 8 1 0.7 0.8521815276947717 72.61493596602926 69.22878105390295 0 0 0
23 8 2 -0.35 0.3772881279650683 73.63236824785265 69.52017050257402 0 0 0
24 8 2 -0.35 1.327074927424475 71.59750368420588 68.93739160523188 0 0 0
25 9 1 0.7 63.1231729467973 46.167716822199395 75.81663070517435 0 0 0
26 9 2 -0.35 62.78241594374851 46.879735397353116 74.96662234432766 0 0 0
27 9 2 -0.35 63.46392994984608 45.455698247045675 76.66663906602103 0 0 0
28 10 1 0.7 15.112261865340296 56.78517077434118 18.365204352124223 0 0 0
29 10 2 -0.35 15.118841175314639 55.82562880012392 19.01699873104714 0 0 0
30 10 2 -0.35 15.105682555365952 57.74471274855844 17.71340997320131 0 0 0
31 11 1 0.7 8.989546151826879 37.30217375434105 32.63428921002629 0 0 0
32 11 2 -0.35 8.595135180274333 37.272995675493384 33.72478846506213 0 0 0
33 11 2 -0.35 9.383957123379425 37.33135183318871 31.54378995499044 0 0 0
34 12 1 0.7 49.49875291180739 10.540188746778384 68.95226710427193 0 0 0
35 12 2 -0.35 48.57941413318062 11.223597038059971 69.13493981028087 0 0 0
36 12 2 -0.35 50.41809169043415 9.856780455496796 68.76959439826298 0 0 0
37 13 1 0.7 70.75322149822173 34.393720612578896 75.2623356134921 0 0 0
38 13 2 -0.35 70.83819167504387 33.242878054570426 75.14426158702 0 0 0
39 13 2 -0.35 70.6682513213996 35.54456317058737 75.3804096399642 0 0 0
40 14 1 0.7 9.074655961745725 42.74274906038435 82.38345787971441 0 0 0
41 14 2 -0.35 8.373636556236667 42.40191711463984 83.24253027355543 0 0 0
42 14 2 -0.35 9.775675367254783 43.08358100612885 81.5243854858734 0 0 0
43 15 1 0.7 88.77658436017883 93.05334152563165 57.511021291143734 0 0 0
44 15 2 -0.35 87.98994728296503 93.05945649379186 56.65851632581102 0 0 0
45 15 2 -0.35 89.56322143739263 93.04722655747145 58.36352625647645 0 0 0
46 16 1 0.7 57.73484025277888 19.46012845470576 76.37893823970991 0 0 0
47 16 2 -0.35 56.58531294915798 19.309953131310213 76.33851113898406 0 0 0
48 16 2 -0.35 58.88436755639978 19.610303778101308 76.41936534043576 0 0 0
49 17 1 0.7 60.81499480447499 12.617678811129965 25.32777866131057 0 0 0
50 17 2 -0.35 59.843268334497694 13.189367580973906 25.600761477582555 0 0 0
51 17 2 -0.35 61.78672127445229 12.045990041286023 25.054795845038587 0 0 0
52 18 1 0.7 83.9759606467448 63.970589839839654 38.7034381850173 0 0 0
53 18 2 -0.35 83.16032210985632 64.59237529328459 38.16148188878419 0 0 0
54 18 2 -0.35 84.79159918363327 63.34880438639471 39.24539448125041 0 0 0
55 19 1 0.7 23.685575585665912 33.468868287032876 16.269300161520622 0 0 0
56 19 2 -0.35 23.505834947157926 33.780486888787486 15.166491406609216 0 0 0
57 19 2 -0.35 23.8653162241739 33.157249685278266 17.372108916432026 0 0 0
58 20 1 0.7 28.127814677137795 24.181278654924256 4.750353312003591 0 0 0
59 20 2 -0.35 29.048273803568673 24.116586778494714 5.453325543101042 0 0 0
60 20 2 -0.35 27.207355550706918 24.245970531353798 4.047381080906139 0 0 0
61 21 1 0.7 39.188114844350196 94.6461889937735 38.49841835140177 0 0 0
62 21 2 -0.35 39.99775151547925 93.91771850873974 38.89769170788543 0 0 0
63 21 2 -0.35 38.37847817322114 0.3746594788072741 38.099144994918106 0 1 0
64 22 1 0.7 92.91723200954368 49.91838440062403 33.286621288064225 0 0 0
65 22 2 -0.35 91.99192699701388 49.234010998690565 33.14155688680317 0 0 0
66 22 2 -0.35 93.84253702207349 50.60275780255749 33.43168568932528 0 0 0
67 23 1 0.7 88.2439884954337 71.71464275415737 43.00076912296972 0 0 0
68 23 2 -0.35 89.00662724068016 72.31435429454254 42.36490104500249 0 0 0
69 23 2 -0.35 87.48134975018723 71.1149312137722 43.63663720093695 0 0 0
70 24 1 0.7 48.92664975203883 85.20238251667581 61.442957770285645 0 0 0
71 24 2 -0.35 48.10721203687889 85.94225933099912 61.798913007078504 0 0 0
72 24 2 -0.35 49.74608746719876 84.4625057023525 61.087002533492786 0 0 0
73 25 1 0.7 21.79124519079516 20.45792169424608 31.28991519393861 0 0 0
74 25 2 -0.35 20.747424523866968 19.974555435613958 31.14026401516086 0 0 0
75 25 2 -0.35 22.83506585772335 20.941287952878206 31.439566372716364 0 0 0
76 26 1 0.7 64.60466452623004 55.59669234817694 88.60829580976083 0 0 0
77 26 2 -0.35 63.52359838281265 55.89360067319891 88.31040079454692 0 0 0
78 26 2 -0.35 65.68573066964743 55.29978402315496 88.90619082497474 0 0 0
79 27 1 0.7 19.6276746502275 42.32784637358405 44.114000827127136 0 0 0
80 27 2 -0.35 18.780990029163416 42.25360980111103 43.32456173273098 0 0 0
81 27 2 -0.35 20.474359271291586 42.40208294605707 44.903439921523294 0 0 0
82 28 1 0.7 44.0119015257861 38.02894388699389 87.45990870635022 0 0 0
83 28 2 -0.35 43.18160479648232 38.58349619941022 88.05039924319323 0 0 0
84 28 2 -0.35 44.84219825508988 37.47439157457757 86.86941816950721 0 0 0
85 29 1 0.7 3.685627627971409 4.34354331546628 41.93250304177986 0 0 0
86 29 2 -0.35 2.5262549531298637 4.368337139642968 41.96149040305088 0 0 0
87 29 2 -0.35 4.845000302812954 4.3187494912895925 41.90351568050884 0 0 0
88 30 1 0.7 49.57862319405126 22.92002241961659 86.81680649603568 0 0 0
89 30 2 -0.35 48.65879770471495 22.96905673164506 86.11174145973682 0 0 0
90 30 2 -0.35 50.49844868338757 22.87098810758812 87.52187153233454 0 0 0
91 31 1 0.7 25.06677887172754 67.35249712474295 68.41917555472774 0 0 0
92 31 2 -0.35 25.378959013361495 66.366955112365 67.89300970539178 0 0 0
93 31 2 -0.35 24.754598730093583 68.3380391371209 68.94534140406371 0 0 0
94 32 1 0.7 41.08354830932037 31.196434747519177 13.478801554757544 0 0 0
95 32 2 -0.35 40.292177034856266 30.348979999342884 13.444861081182198 0 0 0
96 32 2 -0.35 41.874919583784475 32.043889495695474 13.51274202833289 0 0 0
97 33 1 0.7 58.217730810035825 60.401724272128995 1.7798416720609376 0 0 0
98 33 2 -0.35 57.07659929794415 60.23835851050326 1.9091881062592062 0 0 0
99 33 2 -0.35 59.3588623221275 60.56509003375473 1.650495237862669 0 0 0
100 34 1 0.7 83.79898232817602 34.49598965444415 84.09812224288383 0 0 0
101 34 2 -0.35 82.80036470489803 34.443582035590325 83.51023085498579 0 0 0
102 34 2 -0.35 84.79759995145402 34.54839727329798 84.68601363078187 0 0 0
103 35 1 0.7 27.140536148632194 55.99105006129996 66.57838026833645 0 0 0
104 35 2 -0.35 25.994324587906334 56.16925215196425 66.57181727044947 0 0 0
105 35 2 -0.35 28.286747709358053 55.812847970635666 66.58494326622342 0 0 0
106 36 1 0.7 72.83716993072869 4.315025757213601 37.63790148898861 0 0 0
107 36 2 -0.35 71.8565371334722 3.760177563312359 37.913768846009056 0 0 0
108 36 2 -0.35 73.81780272798518 4.869873951114842 37.362034131968166 0 0 0
109 37 1 0.7 70.21032543164227 29.939529611700923 73.6741838574755 0 0 0
110 37 2 -0.35 69.05111876833833 29.936950607426535 73.63136726619746 0 0 0
111 37 2 -0.35 71.36953209494622 29.94210861597531 73.71700044875354 0 0 0
112 38 1 0.7 12.00809259061147 40.01217040699542 74.54803037203291 0 0 0
113 38 2 -0.35 12.051080699589175 40.62145259170141 73.56186241377914 0 0 0
114 38 2 -0.35 11.965104481633766 39.402888222289434 75.53419833028669 0 0 0
115 39 1 0.7 68.74646275711547 31.79955883966738 80.18541828970677 0 0 0
116 39 2 -0.35 67.95787589271205 31.084987847773505 79.72377009591176 0 0 0
117 39 2 -0.35 69.53504962151888 32.514129831561256 80.64706648350179 0 0 0
118 40 1 0.7 6.325195101706868 2.554074387324077 81.32822775576646 0 0 0
119 40 2 -0.35 6.073516842215503 2.594655278235927 82.45986870809728 0 0 0
120 40 2 -0.35 6.576873361198232 2.5134934964122273 80.19658680343565 0 0 0
121 41 1 0.7 23.523891167027827 71.03884423665649 84.85508548554735 0 0 0
122 41 2 -0.35 23.002858736287763 71.79156551065955 84.14266995386637 0 0 0
123 41 2 -0.35 24.04492359776789 70.28612296265342 85.56750101722832 0 0 0
124 42 1 0.7 19.42175559439778 1.4462750435090972 82.54465625739873 0 0 0
125 42 2 -0.35 18.27913526425607 1.2797945604336844 82.65557528147404 0 0 0
126 42 2 -0.35 20.56437592453949 1.61275552658451 82.43373723332341 0 0 0
127 43 1 0.7 43.03771810049085 4.928114949692094 81.82795947502738 0 0 0
128 43 2 -0.35 44.142777672498354 4.985881256860087 81.47995603241401 0 0 0
129 43 2 -0.35 41.932658528483344 4.8703486425241005 82.17596291764076 0 0 0
130 44 1 0.7 62.514896785148835 82.8702679965041 5.594217244346727 0 0 0
131 44 2 -0.35 61.89411792949443 83.7525898032197 5.16790533767919 0 0 0
132 44 2 -0.35 63.13567564080324 81.98794618978849 6.020529151014265 0 0 0
133 45 1 0.7 67.00922573544514 94.0569356265743 14.917075834198426 0 0 0
134 45 2 -0.35 65.88726114604431 93.82494230918194 15.098664822895186 0 0 0
135 45 2 -0.35 68.13119032484597 94.28892894396667 14.735486845501667 0 0 0
136 46 1 0.7 6.293545372920831 40.61708268039724 76.30860943640982 0 0 0
137 46 2 -0.35 5.985796500472586 40.27435353606744 77.37323489408675 0 0 0
138 46 2 -0.35 6.601294245369076 40.95981182472704 75.2439839787329 0 0 0
139 47 1 0.7 18.79879774004165 76.39361688000784 22.518902291785412 0 0 0
140 47 2 -0.35 18.075187802287076 76.54187664007168 23.413333788060356 0 0 0
141 47 2 -0.35 19.522407677796224 76.245357119944 21.62447079551047 0 0 0
142 48 1 0.7 90.19081803746094 17.078755606002527 47.645470084457415 0 0 0
143 48 2 -0.35 89.18076969016316 16.513778071453938 47.72422744332897 0 0 0
144 48 2 -0.35 91.20086638475873 17.643733140551117 47.56671272558586 0 0 0
145 49 1 0.7 22.41570947571458 65.82915833491327 20.664134887356372 0 0 0
146 49 2 -0.35 22.59588124693047 64.93842391836944 19.943211637598647 0 0 0
147 49 2 -0.35 22.235537704498686 66.71989275145711 21.385058137114097 0 0 0
148 50 1 0.7 77.11505179857605 82.67557866763119 58.450666877185306 0 0 0
149 50 2 -0.35 76.44525968318501 81.88295865238003 58.96906058237785 0 0 0
150 50 2 -0.35 77.78484391396708 83.46819868288235 57.93227317199276 0 0 0
151 51 1 0.7 80.3582048534221 60.34897146529936 65.16341728631566 0 0 0
152 51 2 -0.35 79.534295086761 60.90391009135188 65.76242965489867 0 0 0
153 51 2 -0.35 81.18211462008318 59.79403283924683 64.56440491773266 0 0 0
154 52 1 0.7 41.554331107323215 58.64292078122632 81.5695700708635 0 0 0
155 52 2 -0.35 41.503184648019065 57.484080631122445 81.57814597943731 0 0 0
156 52 2 -0.35 41.605477566627364 59.8017609313302 81.5609941622897 0 0 0
157 53 1 0.7 89.7641810028647 66.59011514698626 80.06527539811343 0 0 0
158 53 2 -0.35 88.72450964144488 66.51227045451009 79.55672484595883 0 0 0
159 53 2 -0.35 90.80385236428452 66.66795983946244 80.57382595026803 0 0 0
160 54 1 0.7 77.08361609237437 29.335664536028947 89.51385703846526 0 0 0
161 54 2 -0.35 76.36340581717958 30.2051329316035 89.78016863904033 0 0 0
162 54 2 -0.35 77.80382636756916 28.466196140454393 89.2475454378902 0 0 0
163 55 1 0.7 39.395245485657476 60.89087744517759 52.97722109964919 0 0 0
164 55 2 -0.35 38.57200172411383 60.72395566469236 53.777225367312255 0 0 0
165 55 2 -0.35 40.21848924720112 61.05779922566281 52.17721683198613 0 0 0
166 56 1 0.7 48.15502180399142 36.45145968368811 79.68290374599532 0 0 0
167 56 2 -0.35 47.01596581842629 36.39658130756695 79.47044239519816 0 0 0
168 56 2 -0.35 49.294077789556546 36.506338059809266 79.89536509679247 0 0 0
169 57 1 0.7 15.563258943410245 36.693061895991235 55.29128592474912 0 0 0
170 57 2 -0.35 14.45491686842546 36.7608173865167 54.955746004140444 0 0 0
171 57 2 -0.35 16.67160101839503 36.62530640546577 55.62682584535779 0 0 0
172 58 1 0.7 85.64253725839897 49.12370191147723 72.0580261978591 0 0 0
173 58 2 -0.35 86.01558505038939 48.11504725561983 72.49282630147947 0 0 0
174 58 2 -0.35 85.26948946640856 50.132356567334625 71.62322609423875 0 0 0
175 59 1 0.7 19.246307417865054 92.68877205796949 10.191978293094774 0 0 0
176 59 2 -0.35 18.99027036064419 91.63200761785659 9.78788183995202 0 0 0
177 59 2 -0.35 19.50234447508592 93.74553649808239 10.596074746237528 0 0 0
178 60 1 0.7 11.57917204386516 51.14454124176155 26.30465028635443 0 0 0
179 60 2 -0.35 10.559364316105173 50.87927354663653 25.8196500303503 0 0 0
180 60 2 -0.35 12.598979771625148 51.40980893688657 26.78965054235856 0 0 0
181 61 1 0.7 67.25736275886062 84.49588817055145 62.39248245833092 0 0 0
182 61 2 -0.35 66.18698735256095 84.79057703164173 62.728718929788315 0 0 0
183 61 2 -0.35 68.3277381651603 84.20119930946117 62.05624598687352 0 0 0
184 62 1 0.7 20.452677167697193 38.14515748673359 45.661879531416055 0 0 0
185 62 2 -0.35 21.01672996319995 38.956268604162595 46.269780180427546 0 0 0
186 62 2 -0.35 19.888624372194435 37.33404636930458 45.053978882404564 0 0 0
187 63 1 0.7 29.209284509629608 55.44475334484351 4.969466784954754 0 0 0
188 63 2 -0.35 28.14541571236449 55.8699427550863 4.787815614787707 0 0 0
189 63 2 -0.35 30.273153306894727 55.019563934600725 5.151117955121801 0 0 0
190 64 1 0.7 16.828254734551653 17.477323609626538 1.3779069932074783 0 0 0
191 64 2 -0.35 16.868502064223716 18.384463022645036 0.6560495018681402 0 0 0
192 64 2 -0.35 16.78800740487959 16.57018419660804 2.0997644845468164 0 0 0
193 65 1 0.7 73.48283483808993 26.005123777317408 68.11532537365115 0 0 0
194 65 2 -0.35 73.75284309037187 25.39131745464167 69.06186504104123 0 0 0
195 65 2 -0.35 73.21282658580799 26.618930099993147 67.16878570626106 0 0 0
196 66 1 0.7 64.2735549548052 0.6381254110662851 84.97378379105301 0 0 0
197 66 2 -0.35 63.530747552233976 0.8649529705977111 84.11216530185817 0 0 0
198 66 2 -0.35 65.01636235737644 0.411297851534859 85.83540228024785 0 0 0
199 67 1 0.7 19.384176227908664 34.84986246090841 46.63838048774674 0 0 0
200 67 2 -0.35 18.987950726598076 33.85851762064899 46.18468371698218 0 0 0
201 67 2 -0.35 19.780401729219253 35.841207301167834 47.092077258511296 0 0 0
202 68 1 0.7 6.260857559396353 61.23300077451067 8.04401720084437 0 0 0
203 68 2 -0.35 5.606159600744538 61.89870380436218 7.3556785785198135 0 0 0
204 68 2 -0.35 6.915555518048168 60.567297744659164 8.732355823168927 0 0 0
205 69 1 0.7 10.79709459133311 16.76879653556682 63.163373271545105 0 0 0
206 69 2 -0.35 9.694725822235004 16.825006686623578 63.52005732758813 0 0 0
207 69 2 -0.35 11.899463360431216 16.712586384510065 62.80668921550208 0 0 0
208 70 1 0.7 56.814574858553044 37.55964770100994 84.99891087412783 0 0 0
209 70 2 -0.35 55.70080448970792 37.637764006709645 84.68424691326415 0 0 0
210 70 2 -0.35 57.92834522739817 37.48153139531024 85.31357483499151 0 0 0
211 71 1 0.7 61.69506146651463 78.89806771133937 29.8240244806856 0 0 0
212 71 2 -0.35 62.73838263709708 78.45899171885972 30.077585534166744 0 0 0
213 71 2 -0.35 60.65174029593218 79.33714370381901 29.57046342720446 0 0 0
214 72 1 0.7 32.379446882931255 41.36376142565336 85.73828095604586 0 0 0
215 72 2 -0.35 31.222202414023528 41.38204425177676 85.81606898501828 0 0 0
216 72 2 -0.35 33.53669135183898 41.345478599529955 85.66049292707343 0 0 0
217 73 1 0.7 43.28802826268972 31.89101102617151 2.2223168645158022 0 0 0
218 73 2 -0.35 43.23614112215724 32.98498579872066 2.6045823765272753 0 0 0
219 73 2 -0.35 43.3399154032222 30.797036253622355 1.8400513525043292 0 0 0
220 74 1 0.7 15.47954191708916 54.66100051750475 37.435697702428186 0 0 0
221 74 2 -0.35 14.330191171893825 54.75661573056731 37.311397277851555 0 0 0
222 74 2 -0.35 16.628892662284493 54.565385304442195 37.55999812700482 0 0 0
223 75 1 0.7 91.77128471050936 74.98212953097287 49.65102706088267 0 0 0
224 75 2 -0.35 91.23399484164442 74.289805624168 48.89102232084381 0 0 0
225 75 2 -0.35 92.30857457937431 75.67445343777774 50.41103180092153 0 0 0
226 76 1 0.7 4.811812254978256 27.128569419555635 44.86623447149351 0 0 0
227 76 2 -0.35 5.769226486903991 27.45723878914857 45.43274522514029 0 0 0
228 76 2 -0.35 3.854398023052521 26.7999000499627 44.29972371784674 0 0 0
229 77 1 0.7 51.8027623914195 69.02751258761973 5.404060124607785 0 0 0
230 77 2 -0.35 50.98323187277689 69.63301980937338 4.849685942833829 0 0 0
231 77 2 -0.35 52.62229291006211 68.42200536586607 5.958434306381741 0 0 0
232 78 1 0.7 6.038514283037984 29.30955501939615 30.691210991093524 0 0 0
233 78 2 -0.35 6.174466871584157 28.80229660386714 29.656896825308973 0 0 0
234 78 2 -0.35 5.902561694491812 29.81681343492516 31.725525156878074 0 0 0
235 79 1 0.7 72.18312730881532 31.820679258937332 55.156304959746215 0 0 0
236 79 2 -0.35 71.27019021972713 31.196862184517236 54.805594068798804 0 0 0
237 79 2 -0.35 73.0960643979035 32.44449633335743 55.50701585069363 0 0 0
238 80 1 0.7 2.0174584547139047 87.42424837659311 69.34246540038961 0 0 0
239 80 2 -0.35 2.952567803644927 86.8311339456429 69.6879878704844 0 0 0
240 80 2 -0.35 1.0823491057828822 88.01736280754332 68.99694293029482 0 0 0
241 81 1 0.7 73.81598434821515 20.24894045211791 33.94217874572714 0 0 0
242 81 2 -0.35 73.0719806208943 21.0847277718396 34.24798589071415 0 0 0
243 81 2 -0.35 74.55998807553601 19.41315313239622 33.636371600740134 0 0 0
244 82 1 0.7 86.19817943600853 77.80178099535489 34.53318892956394 0 0 0
245 82 2 -0.35 86.47357828381028 76.76208329501897 34.96768192898473 0 0 0
246 82 2 -0.35 85.92278058820678 78.84147869569081 34.09869593014315 0 0 0
247 83 1 0.7 44.306339181170955 46.642617940270625 77.4797221284731 0 0 0
248 83 2 -0.35 43.42306151945371 46.69124185804629 76.7293513621639 0 0 0
249 83 2 -0.35 45.1896168428882 46.59399402249496 78.2300928947823 0 0 0
250 84 1 0.7 36.68981324727172 0.6912468959070961 27.786579510563325 0 0 0
251 84 2 -0.35 37.8409196575039 0.5479116158596913 27.78357454531882 0 0 0
252 84 2 -0.35 35.53870683703954 0.8345821759545009 27.78958447580783 0 0 0
253 85 1 0.7 84.04183403777044 31.104672807783203 86.23588041227119 0 0 0
254 85 2 -0.35 84.94781165268988 30.424573002547746 85.98634320826427 0 0 0
255 85 2 -0.35 83.135856422851 31.78477261301866 86.4854176162781 0 0 0
256 86 1 0.7 46.442089041900864 32.190527227795926 1.1911175661678972 0 0 0
257 86 2 -0.35 45.80673838624951 32.505667487426265 2.1090588285172487 0 0 0
258 86 2 -0.35 47.077439697552215 31.875386968165586 0.27317630381854574 0 0 0
259 87 1 0.7 69.11293458385063 16.0915507777089 80.6939209535224 0 0 0
260 87 2 -0.35 68.79949915297748 15.58251194898082 81.68802240786219 0 0 0
261 87 2 -0.35 69.42637001472379 16.60058960643698 79.6998194991826 0 0 0
262 88 1 0.7 2.7294658509685963 84.13255722920063 35.889351175115145 0 0 0
263 88 2 -0.35 2.7341165774671348 83.87370019866937 34.75861185569286 0 0 0
264 88 2 -0.35 2.724815124470058 84.39141425973189 37.02009049453743 0 0 0
265 89 1 0.7 37.32520016018544 39.63909223658922 74.22322035498135 0 0 0
266 89 2 -0.35 36.54910550008003 40.13175705671559 73.5157187976928 0 0 0
267 89 2 -0.35 38.101294820290846 39.14642741646285 74.9307219122699 0 0 0
268 90 1 0.7 24.66450617167377 51.35522732108608 52.30558549394159 0 0 0
269 90 2 -0.35 25.418644045914395 50.57947261999263 52.72401196342846 0 0 0
270 90 2 -0.35 23.91036829743315 52.13098202217954 51.887159024454725 0 0 0
271 91 1 0.7 64.97539667644324 16.49194098147188 65.05207559794749 0 0 0
272 91 2 -0.35 63.969378682826985 16.293448598672402 64.50973938258758 0 0 0
273 91 2 -0.35 65.9814146700595 16.69043336427136 65.5944118133074 0 0 0
274 92 1 0.7 70.2345747036089 57.49704355490256 12.811027247370701 0 0 0
275 92 2 -0.35 69.34859501240685 57.204546144960375 13.500291530468719 0 0 0
276 92 2 -0.35 71.12055439481095 57.78954096484475 12.121762964272683 0 0 0
277 93 1 0.7 44.934946559339274 66.64682281513085 83.15105390416042 0 0 0
278 93 2 -0.35 43.775950536780414 66.59963449924173 83.16112775825337 0 0 0
279 93 2 -0.35 46.09394258189813 66.69401113101996 83.14098005006747 0 0 0
280 94 1 0.7 69.76296722412248 16.19013582644525 27.61283506528141 0 0 0
281 94 2 -0.35 69.85242228239463 15.527838578710925 28.560970154914244 0 0 0
282 94 2 -0.35 69.67351216585033 16.852433074179572 26.664699975648574 0 0 0
283 95 1 0.7 13.918942184615387 45.66129683082052 19.415835600539967 0 0 0
284 95 2 -0.35 12.768050414799061 45.52260304599226 19.45840516970688 0 0 0
285 95 2 -0.35 15.069833954431713 45.799990615648774 19.373266031373056 0 0 0
286 96 1 0.7 91.94893827519796 20.80559125207625 79.57217364552066 0 0 0
287 96 2 -0.35 91.33075749496624 21.140717171074446 80.49474783840041 0 0 0
288 96 2 -0.35 92.56711905542969 20.470465333078057 78.64959945264091 0 0 0
289 97 1 0.7 54.52246026579406 83.98968720063087 9.672781003021067 0 0 0
290 97 2 -0.35 54.51446261730354 84.45115488702325 8.608551886695885 0 0 0
291 97 2 -0.35 54.530457914284575 83.52821951423849 10.737010119346248 0 0 0
292 98 1 0.7 25.43031777508106 2.350845787371903 85.66514835956747 0 0 0
293 98 2 -0.35 25.138867367022076 1.7670888470944996 86.62425445084216 0 0 0
294 98 2 -0.35 25.721768183140046 2.934602727649306 84.70604226829278 0 0 0
295 99 1 0.7 49.14847925032883 13.490760276788269 69.20797198042645 0 0 0
296 99 2 -0.35 48.051177632750615 13.21510847607583 68.95195392476587 0 0 0
297 99 2 -0.35 50.24578086790705 13.766412077500707 69.46399003608703 0 0 0
298 100 1 0.7 93.3850750273024 27.955983871573572 81.22092953707134 0 0 0
299 100 2 -0.35 93.11748450762121 29.07285739247237 81.05786865245496 0 0 0
300 100 2 -0.35 93.6526655469836 26.839110350674776 81.38399042168773 0 0 0
301 101 1 0.7 25.16272955814504 64.99568374361641 72.45667896115067 0 0 0
302 101 2 -0.35 24.29159345505262 64.90031577077258 71.69666130369487 0 0 0
303 101 2 -0.35 26.033865661237456 65.09105171646024 73.21669661860648 0 0 0
304 102 1 0.7 69.40330005921577 51.26409523946424 40.648689675446924 0 0 0
305 102 2 -0.35 70.49862049004264 51.64594426544051 40.64066003197967 0 0 0
306 102 2 -0.35 68.30797962838889 50.88224621348797 40.65671931891418 0 0 0
307 103 1 0.7 37.52737523639918 17.59559816103224 89.21829246879476 0 0 0
308 103 2 -0.35 36.50127205703593 17.05591964113886 89.18009089204288 0 0 0
309 103 2 -0.35 38.55347841576243 18.135276680925617 89.25649404554663 0 0 0
310 104 1 0.7 11.841523033492976 90.47762391645351 87.4251638340881 0 0 0
311 104 2 -0.35 10.681928175439381 90.49946403188967 87.40365163909546 0 0 0
312 104 2 -0.35 13.00111789154657 90.45578380101735 87.44667602908073 0 0 0
313 105 1 0.7 84.7285595185722 77.89982864302576 67.42000333379022 0 0 0
314 105 2 -0.35 83.84861631914096 78.54588739452849 67.02769216216566 0 0 0
315 105 2 -0.35 85.60850271800344 77.25376989152302 67.81231450541478 0 0 0
316 106 1 0.7 62.99603101238424 94.29322514184435 91.23495897801358 0 0 0
317 106 2 -0.35 61.8660019389184 94.21465132365763 90.9850380940973 0 0 0
318 106 2 -0.35 64.12606008585009 94.37179896003106 91.48487986192985 0 0 0
319 107 1 0.7 85.95554347427354 84.81917211544662 80.82574431124411 0 0 0
320 107 2 -0.35 86.65453598745066 83.90169407514672 80.94920893002133 0 0 0
321 107 2 -0.35 85.25655096109642 85.73665015574652 80.70227969246689 0 0 0
322 108 1 0.7 33.28463907972194 54.929012886681136 76.91958644982408 0 0 0
323 108 2 -0.35 34.43569188425277 54.973339469332494 77.05638043818672 0 0 0
324 108 2 -0.35 32.133586275191114 54.88468630402978 76.78279246146144 0 0 0
325 109 1 0.7 27.48946219332957 30.39108329005124 62.9368558912244 0 0 0
326 109 2 -0.35 26.34155453271277 30.492280756149192 62.803938339514254 0 0 0
327 109 2 -0.35 28.637369853946367 30.28988582395329 63.06977344293454 0 0 0
328 110 1 0.7 49.73696380841404 24.150728014833636 61.28574530886753 0 0 0
329 110 2 -0.35 50.5082065859867 24.915944414930077 61.692228320893186 0 0 0
330 110 2 -0.35 48.96572103084138 23.385511614737194 60.87926229684188 0 0 0
331 111 1 0.7 39.52140613669595 91.27293944883763 59.29331661401937 0 0 0
332 111 2 -0.35 38.68255436990569 91.56569751076654 60.039118484845986 0 0 0
333 111 2 -0.35 40.360257903486215 90.98018138690873 58.54751474319275 0 0 0
334 112 1 0.7 87.77233182348886 29.580957377134336 32.150637496798595 0 0 0
335 112 2 -0.35 86.89710156397197 28.866136932770004 32.41256062511066 0 0 0
336 112 2 -0.35 88.64756208300574 30.295777821498667 31.888714368486532 0 0 0
337 113 1 0.7 90.76440869400483 62.41692013918279 51.17677924510873 0 0 0
338 113 2 -0.35 89.77225752305934 62.99368205363799 51.34584061865533 0 0 0
339 113 2 -0.35 91.75655986495032 61.840158224727595 51.007717871562136 0 0 0
340 114 1 0.7 93.12877254240622 90.28012022156274 92.98056380496386 0 0 0
341 114 2 -0.35 92.04611497308571 90.0177509455626 92.65712145986333 0 0 0
342 114 2 -0.35 94.21143011172674 90.54248949756288 93.3040061500644 0 0 0
343 115 1 0.7 69.33587002769852 57.96755552895719 35.70577518348851 0 0 0
344 115 2 -0.35 70.24949490871765 58.1019019748832 35.003749109008496 0 0 0
345 115 2 -0.35 68.42224514667939 57.833209083031186 36.40780125796853 0 0 0
346 116 1 0.7 86.9635088913904 20.69393759858512 8.009219420146765 0 0 0
347 116 2 -0.35 87.19258815389887 19.6189052528166 7.638506394964191 0 0 0
348 116 2 -0.35 86.73442962888194 21.76896994435364 8.37993244532934 0 0 0
349 117 1 0.7 90.95079440667796 60.001593036577844 21.7741657638802 0 0 0
350 117 2 -0.35 91.14131836882082 59.88991087148177 20.635382327993977 0 0 0
351 117 2 -0.35 90.7602704445351 60.11327520167392 22.912949199766427 0 0 0
352 118 1 0.7 18.403993534578007 90.91933565257087 6.274312758480344 0 0 0
353 118 2 -0.35 17.2494016976767 90.99212805182829 6.359277202639164 0 0 0
354 118 2 -0.35 19.558585371479314 90.84654325331344 6.189348314321525 0 0 0
355 119 1 0.7 2.374531779147001 8.755612123643798 0.5729620813266197 0 0 0
356 119 2 -0.35 3.3716275029341203 9.182228420741708 0.984542757082792 0 0 0
357 119 2 -0.35 1.3774360553598815 8.328995826545889 0.16138140557044744 0 0 0
358 120 1 0.7 34.7737008564983 1.5902951669834067 33.09087149011478 0 0 0
359 120 2 -0.35 34.121647470794024 0.7058732567119462 33.462656732994816 0 0 0
360 120 2 -0.35 35.42575424220258 2.474717077254867 32.71908624723474 0 0 0
361 121 1 0.7 28.277134359011953 63.79717191392424 69.06835732472518 0 0 0
362 121 2 -0.35 27.2317949354401 63.31638863751475 69.2157104063062 0 0 0
363 121 2 -0.35 29.322473782583806 64.27795519033373 68.92100424314417 0 0 0
364 122 1 0.7 26.88155665615646 73.32272002162539 89.95540345784063 0 0 0
365 122 2 -0.35 25.92841335212891 72.73247781062064 89.65752433078458 0 0 0
366 122 2 -0.35 27.834699960184007 73.91296223263014 90.25328258489668 0 0 0
367 123 1 0.7 50.46591592741474 20.648992059588895 12.609545510546091 0 0 0
368 123 2 -0.35 50.45692405173893 21.183373607158433 11.580004104001887 0 0 0
369 123 2 -0.35 50.47490780309055 20.114610512019357 13.639086917090296 0 0 0
370 124 1 0.7 78.63139574817913 12.868339646546328 58.18443950413933 0 0 0
371 124 2 -0.35 77.47931822020317 12.965479552424732 58.27867966659003 0 0 0
372 124 2 -0.35 79.78347327615509 12.771199740667925 58.090199341688624 0 0 0
373 125 1 0.7 70.87474606971942 81.85719377447721 78.85576763835539 0 0 0
374 125 2 -0.35 69.9957765728812 82.23688627140733 78.20090411715198 0 0 0
375 125 2 -0.35 71.75371556655764 81.47750127754709 79.5106311595588 0 0 0
376 126 1 0.7 78.88669783896148 28.730579425455343 84.84840362791363 0 0 0
377 126 2 -0.35 78.24256520202044 27.83502338653164 85.2071131582786 0 0 0
378 126 2 -0.35 79.53083047590252 29.626135464379047 84.48969409754865 0 0 0
379 127 1 0.7 2.119774344432994 2.047406885329358 20.767521730515885 0 0 0
380 127 2 -0.35 1.7693122141018498 2.997190666685596 21.333814114251002 0 0 0
381 127 2 -0.35 2.4702364747641385 1.09762310397312 20.201229346780767 0 0 0
382 128 1 0.7 9.737724780448584 71.94038499935549 37.05068416756144 0 0 0
383 128 2 -0.35 8.829285986832163 71.4163696103912 36.55495558216279 0 0 0
384 128 2 -0.35 10.646163574065005 72.46440038831977 37.546412752960094 0 0 0
385 129 1 0.7 80.84880420511999 40.85227545157646 39.19351464565541 0 0 0
386 129 2 -0.35 79.78830024516314 41.31708203474989 39.2634159414551 0 0 0
387 129 2 -0.35 81.90930816507684 40.38746886840303 39.123613349855724 0 0 0
388 130 1 0.7 90.400649530534 28.71665968499922 40.89932578192061 0 0 0
389 130 2 -0.35 89.33081020304327 28.49046421006889 40.51218314609343 0 0 0
390 130 2 -0.35 91.47048885802472 28.942855159929554 41.28646841774779 0 0 0
391 131 1 0.7 69.96841673970614 49.18014424116357 70.68426123619278 0 0 0
392 131 2 -0.35 69.23838911448856 48.3907899420285 71.11966846724913 0 0 0
393 131 2 -0.35 70.69844436492373 49.96949854029864 70.24885400513644 0 0 0
394 132 1 0.7 15.378596692056673 68.0746033965026 44.859285019272605 0 0 0
395 132 2 -0.35 15.08309165324587 68.77624104413228 45.73448864327453 0 0 0