LAMMPS data file via write_data, version 29 Aug 2024, timestep = 8000000, units = real

1500 atoms
2 atom types
1000 bonds
1 bond types
500 angles
1 angle types

0 95 xlo xhi
0 95 ylo yhi
0 95 zlo zhi

Masses

1 12.0107
2 15.9994

PairIJ Coeffs # lj/cut/coul/long/gpu

1 1 0.053649 2.8 12
1 2 0.0917684 2.925 12
2 2 0.156973 3.05 12

Bond Coeffs # harmonic

1 0 1.16

Angle Coeffs # harmonic

1 0 180

Atoms # full

549 183 2 -0.35 5.763353626554509 11.700773733032518 14.848584875384324 3 -6 4
324 108 2 -0.35 40.62651263826638 11.008381628336533 11.85680367607817 7 -5 13
323 108 2 -0.35 39.74662701596857 10.379557793985654 9.804297433205987 7 -5 13
322 108 1 0.7 40.186569827117474 10.693969711161094 10.830550554642079 7 -5 13
1292 431 2 -0.35 40.01343008505459 3.7914564683714325 1.6328308250281114 -1 0 3
1291 431 1 0.7 39.640248469730295 4.799692416880676 2.0684863702893432 -1 0 3
1293 431 2 -0.35 39.267066854405996 5.80792836538992 2.5041419155505755 -1 0 3
868 290 1 0.7 38.378968705896405 13.270177019896185 11.792040269620147 6 -4 4
870 290 2 -0.35 38.0946664650754 13.434005670018008 12.904664379220115 6 -4 4
869 290 2 -0.35 38.66327094671742 13.106348369774361 10.679416160020178 6 -4 4
1223 408 2 -0.35 53.59502043938095 6.0784756034676075 7.673063003471189 -4 -3 4
1222 408 1 0.7 54.39805216993234 5.815913229414277 8.467922135301809 -4 -3 4
1224 408 2 -0.35 55.201083900483724 5.5533508553609465 9.262781267132427 -4 -3 4
395 132 2 -0.35 49.366588222608236 0.38046849511229414 5.755199106045253 0 -3 7
394 132 1 0.7 49.38342930774909 0.4386703560817156 6.913615663778734 0 -3 7
396 132 2 -0.35 49.400270392889944 0.4968722170511371 8.072032221512217 0 -3 7
1355 452 2 -0.35 60.560295012495445 15.536398126438861 0.38872299367301055 2 5 -1
1354 452 1 0.7 59.85919915448724 14.615243193588128 0.4631419937089559 2 5 -1
1356 452 2 -0.35 59.158103296479034 13.694088260737395 0.5375609937449013 2 5 -1
335 112 2 -0.35 56.64500560164992 5.3277417959233855 12.560616704787838 2 6 -2
334 112 1 0.7 56.46894723153916 5.7685875034828324 13.619039357813852 2 6 -2
435 145 2 -0.35 59.119194991729195 14.785319523793303 16.1378282403523 -7 -5 5
433 145 1 0.7 58.82885159788145 14.362097228566402 15.097547700078067 -7 -5 5
336 112 2 -0.35 56.292888861428395 6.20943321104228 14.677462010839868 2 6 -2
434 145 2 -0.35 58.53850820403371 13.938874933339502 14.057267159803835 -7 -5 5
209 70 2 -0.35 76.5779779270606 12.081054331084943 14.628067086624464 6 -10 2
711 237 2 -0.35 75.46760410708995 7.664614191347113 12.193615094577192 -2 -4 1
208 70 1 0.7 77.12399211793705 13.035392669108793 14.997805967380492 6 -10 2
710 237 2 -0.35 77.43591197187169 8.530081326332105 13.064896213213647 -2 -4 1
709 237 1 0.7 76.45175803948082 8.097347758839609 12.629255653895418 -2 -4 1
284 95 2 -0.35 70.60864290104405 0.25417674809928903 8.357818817448537 4 -1 -8
210 70 2 -0.35 77.6700063088135 13.989731007132644 15.36754484813652 6 -10 2
897 299 2 -0.35 90.11315659420846 13.602383491827092 15.861381497958536 9 -2 3
895 299 1 0.7 89.03453932703093 13.693236988780496 15.44433182101958 9 -2 3
896 299 2 -0.35 87.9559220598534 13.7840904857339 15.027282144080624 9 -2 3
554 185 2 -0.35 1.3598100020587491 27.882222343018352 1.2131154067725003 1 -2 0
553 185 1 0.7 2.2423622293234096 28.399977119827312 0.6666434886966803 1 -2 0
1022 341 2 -0.35 8.947678804878082 22.56973935280673 11.024717817704484 -5 2 -1
1021 341 1 0.7 9.834246438652627 21.838095856845392 10.868847276663981 -5 2 -1
1023 341 2 -0.35 10.72081407242717 21.106452360884052 10.712976735623478 -5 2 -1
555 185 2 -0.35 3.1249144565880695 28.91773189663627 0.12017157062086059 1 -2 0
1159 387 1 0.7 15.842427245116633 27.131444937285934 4.425930174476139 0 5 3
1161 387 2 -0.35 14.887952440291468 26.775260383578754 4.9806466882498865 0 5 3
1495 499 1 0.7 0.2460915934478526 19.26457250984973 1.5628877711131242 2 4 -5
1497 499 2 -0.35 0.9899043010404394 18.74697072374098 2.2870638871499542 2 4 -5
530 177 2 -0.35 10.537947042145294 17.295569280434613 94.96462277503566 -4 2 4
1160 387 2 -0.35 16.7969020499418 27.48762949099312 3.87121366070239 0 5 3
1468 490 1 0.7 31.418990419836536 31.925141843112144 12.972592793525532 7 -2 -5
1470 490 2 -0.35 31.776479913056292 30.825269499713432 13.06249324104242 7 -2 -5
1193 398 2 -0.35 29.02899759551133 23.684435569318307 9.436186267608658 -2 0 -4
1192 398 1 0.7 28.1514906328137 23.102726265432093 8.949158736366629 -2 0 -4
1194 398 2 -0.35 27.27398367011607 22.521016961545882 8.4621312051246 -2 0 -4
299 100 2 -0.35 28.547139763775913 19.13243021909748 5.053071449547681 -6 -6 -5
298 100 1 0.7 28.23088886148741 18.06257523065672 4.735273289536595 -6 -6 -5
300 100 2 -0.35 27.91463795919891 16.99272024221596 4.41747512952551 -6 -6 -5
414 138 2 -0.35 18.49241757854798 23.99662622739257 1.4351090141029084 9 0 0
2 1 2 -0.35 41.033625082765134 31.489146758805465 3.2015667714069718 4 2 6
1 1 1 0.7 41.130198546379326 31.47289898822284 2.0457079668484868 4 2 6
973 325 1 0.7 50.83816713883728 22.431271261550496 6.791829942600094 -3 12 6
975 325 2 -0.35 50.70452352214116 22.76669799195846 5.689456007747112 -3 12 6
974 325 2 -0.35 50.971810755533404 22.095844531142532 7.894203877453075 -3 12 6
785 262 2 -0.35 91.19679848387734 25.262571240482547 12.807960653385988 -1 -3 -2
786 262 2 -0.35 89.41523183483815 24.16164330771594 13.806147991451637 -1 -3 -2
784 262 1 0.7 90.30601515935774 24.712107274099246 13.307054322418812 -1 -3 -2
591 197 2 -0.35 9.22756669149805 46.067328739713 7.752891434194348 -1 -6 -8
589 197 1 0.7 9.818594480412656 45.80213384790864 6.790624411953833 -1 -6 -8
590 197 2 -0.35 10.409622269327263 45.536938956104294 5.828357389713318 -1 -6 -8
1227 409 2 -0.35 8.403453289932989 42.10797348991947 0.00843037359642329 6 -7 -1
1225 409 1 0.7 7.337505899606365 42.11475951605992 94.55092615404713 6 -7 -2
1469 490 2 -0.35 31.06150092661678 33.02501418651086 12.882692346008644 7 -2 -5
619 207 1 0.7 19.18714164771982 32.750678524514235 12.77637278897333 -11 0 7
621 207 2 -0.35 19.316707170169206 32.52552223096593 11.645834236395427 -11 0 7
620 207 2 -0.35 19.057576125270437 32.97583481806254 13.906911341551234 -11 0 7
191 64 2 -0.35 14.716973046621112 35.9232225019351 12.988690245365635 -11 4 -9
190 64 1 0.7 15.623692313624657 36.04375920954902 13.702084297038587 -11 4 -9
843 281 2 -0.35 30.400399796673796 32.26852781849574 4.000162232446426 -3 -1 2
594 198 2 -0.35 21.010563356674254 46.74105311417116 12.02339639685282 -2 3 -5
192 64 2 -0.35 16.5304115806282 36.164295917162946 14.41547834871154 -11 4 -9
841 281 1 0.7 29.271566037139294 32.17321238198999 4.249660350473328 -3 -1 2
592 198 1 0.7 20.214733997398035 45.99539848981159 12.41868719118356 -2 3 -5
842 281 2 -0.35 28.142732277604797 32.07789694548425 4.499158468500231 -3 -1 2
593 198 2 -0.35 19.418904638121816 45.249743865452025 12.813977985514299 -2 3 -5
879 293 2 -0.35 34.23341262357506 41.469786090625355 6.225765762141012 -3 -1 7
877 293 1 0.7 33.8619481779641 42.56097048220676 6.095647395979243 -3 -1 7
878 293 2 -0.35 33.49048373235314 43.65215487378817 5.965529029817473 -3 -1 7
17 6 2 -0.35 46.06473227787686 32.49099130225078 14.457339472213 -1 9 9
16 6 1 0.7 45.03826706301342 32.3541276074928 13.93461823509805 -1 9 9
3 1 2 -0.35 41.22677200999352 31.456651217640218 0.8898491622900018 4 2 6
18 6 2 -0.35 44.01180184814998 32.21726391273483 13.411896997983098 -1 9 9
587 196 2 -0.35 44.12511195542072 34.489027132114764 0.9672423475132536 4 -11 -1
558 186 2 -0.35 61.91181408623948 35.76500139552054 9.075591081725154 -7 0 -11
557 186 2 -0.35 60.47004789945884 33.95437095867586 8.916444344928665 -7 0 -11
556 186 1 0.7 61.19093099284916 34.859686177098204 8.996017713326909 -7 0 -11
905 302 2 -0.35 60.77313108850077 47.58692578489769 12.887929793967755 8 2 1
904 302 1 0.7 60.48560893185811 48.644718100390406 12.508448006888807 8 2 1
1337 446 2 -0.35 65.56524334061184 40.480317072040606 10.555582853203573 -3 -5 10
1336 446 1 0.7 65.05698871447112 40.60827747117966 11.590427465335678 -3 -5 10
1338 446 2 -0.35 64.54873408833039 40.73623787031872 12.625272077467782 -3 -5 10
462 154 2 -0.35 84.78253451574109 40.20544947272231 3.2359899087297395 1 6 0
460 154 1 0.7 84.6872928523204 39.19033989300117 2.6827435199426946 1 6 0
461 154 2 -0.35 84.59205118889969 38.17523031328004 2.1294971311556496 1 6 0
386 129 2 -0.35 92.03421295822548 33.659731796818434 12.09458518074071 -10 0 7
385 129 1 0.7 92.29216993461407 32.53198663858244 12.009443790046692 -10 0 7
387 129 2 -0.35 92.55012691100265 31.404241480346446 11.924302399352674 -10 0 7
301 101 1 0.7 11.573388745465135 55.03254848109597 16.057655779183953 1 6 -1
302 101 2 -0.35 11.899794995829156 54.22934888204637 16.82832390737404 1 6 -1
1358 453 2 -0.35 11.626718667371318 60.21993250500298 16.105238140014997 5 -4 4
303 101 2 -0.35 11.246982495101113 55.83574808014557 15.286987650993867 1 6 -1
1383 461 2 -0.35 21.244991556951913 61.7809165129295 13.528600153509457 -1 6 -2
173 58 2 -0.35 28.50671810761858 52.55469424856632 6.9743922747532014 -3 -12 0
1381 461 1 0.7 20.61506110223434 60.80796605415678 13.57502242178959 -1 6 -2
174 58 2 -0.35 26.736391679976308 53.99006927145478 7.408031391139925 -3 -12 0
172 58 1 0.7 27.62155489379744 53.27238176001055 7.191211832946563 -3 -12 0
1382 461 2 -0.35 19.98513064751677 59.835015595384064 13.621444690069724 -1 6 -2
350 117 2 -0.35 44.82845963161591 49.14583518115034 3.931795613747891 4 -4 -3
349 117 1 0.7 45.6064469307439 48.913129852405525 4.760157848744576 4 -4 -3
1332 444 2 -0.35 34.53892419616347 49.17570529044 3.924256701562184 3 7 -1
351 117 2 -0.35 46.38443422987189 48.68042452366071 5.588520083741262 4 -4 -3
1331 444 2 -0.35 35.837175433981216 48.571886435069075 2.098785114981737 3 7 -1
320 107 2 -0.35 38.55425239228193 63.916833500332444 14.182713219516929 1 7 13
319 107 1 0.7 38.160415009537104 63.00342012225147 13.585914998427373 1 7 13
321 107 2 -0.35 37.766577626792284 62.09000674417049 12.989116777337816 1 7 13
903 301 2 -0.35 32.992390497568586 51.908253820135116 0.2699347102671463 -9 4 -6
901 301 1 0.7 33.932850939467095 52.0000476245093 94.59709887984198 -9 4 -7
902 301 2 -0.35 34.873311381365596 52.09184142888348 93.92426304941681 -9 4 -7
1330 444 1 0.7 35.18804981507235 48.873795862754534 3.0115209082719607 3 7 -1
846 282 2 -0.35 42.233653195426506 62.88357741237973 10.731232225332691 -3 -2 -1
844 282 1 0.7 41.2892402801978 62.47688443795667 10.194310378036404 -3 -2 -1
845 282 2 -0.35 40.344827364969106 62.07019146353361 9.657388530740114 -3 -2 -1
906 302 2 -0.35 60.19808677521545 49.702510415883125 12.128966219809861 8 2 1
1419 473 2 -0.35 54.883487017619245 54.15387429495204 9.559075775501334 2 4 -1
1418 473 2 -0.35 52.76461935942338 54.9709535969899 10.033608452170975 2 4 -1
1417 473 1 0.7 53.82405318852131 54.56241394597097 9.796342113836156 2 4 -1
1213 405 1 0.7 49.89967846019186 50.65694028399643 94.17840473209326 -5 -8 7
1214 405 2 -0.35 50.76015639345216 50.8913356903882 94.92018402530093 -5 -8 7
40 14 1 0.7 51.597774247235115 59.71301638675908 9.918250890435738 -3 0 -2
41 14 2 -0.35 51.591051368212646 58.555792834862345 9.998178694312895 -3 0 -2
678 226 2 -0.35 55.15549427735924 53.56213134590047 5.113515604034915 -2 -5 2
676 226 1 0.7 55.96852500194636 54.26531732359135 5.549532256995168 -2 -5 2
42 14 2 -0.35 51.604497126257584 60.87023993865581 9.83832308655858 -3 0 -2
677 226 2 -0.35 56.78155572653348 54.96850330128222 5.985548909955423 -2 -5 2
1363 455 1 0.7 67.59897608200833 51.724435172825395 0.7078028879801426 -6 -9 4
160 54 1 0.7 79.3565296949457 61.22462463290491 0.45587909920913383 0 2 -3
162 54 2 -0.35 78.53443296551038 61.465130147826535 94.67362973695703 0 2 -4
1364 455 2 -0.35 67.73642794848202 52.807033153016825 1.1011076015168872 -6 -9 4
1178 393 2 -0.35 77.31179636652722 54.81858458014372 94.50179030602413 4 -3 4
161 54 2 -0.35 80.17862642438102 60.98411911798329 1.2381284614612482 0 2 -3
1369 457 1 0.7 16.02749634577878 65.29927182516339 1.0474923979995154 -3 -8 8
611 204 2 -0.35 11.166443471434535 74.92758429669185 1.4357468628265586 8 -4 -5
610 204 1 0.7 11.422422787413888 73.79880088841377 1.3587883871036188 8 -4 -5
612 204 2 -0.35 11.67840210339324 72.67001748013567 1.281829911380679 8 -4 -5
1361 454 2 -0.35 5.219349106454252 72.95095461606662 13.667523258940811 -5 -5 -5
1360 454 1 0.7 5.2110834627759415 72.34999319853897 14.659681035595689 -5 -5 -5
1370 457 2 -0.35 15.573434069098482 66.35249362941389 0.8738511588060274 -3 -8 8
1371 457 2 -0.35 16.481558622459076 64.24605002091289 1.2211336371930033 -3 -8 8
1277 426 2 -0.35 18.751320832838548 63.429482052360584 16.426641421955022 3 6 -3
1276 426 1 0.7 19.29899755222401 64.3767314598574 16.811828092336118 3 6 -3
737 246 2 -0.35 32.08784418253055 72.76600710926994 2.8865803034417405 -2 5 -4
738 246 2 -0.35 29.93919267357295 72.45406420014334 3.7041304942582904 -2 5 -4
736 246 1 0.7 31.013518428051754 72.61003565470664 3.2953553988500155 -2 5 -4
1055 352 2 -0.35 30.63411547001879 67.35404695081182 7.79168490727489 -6 -11 0
1054 352 1 0.7 30.089752472118082 66.6735849938789 7.026021501015672 -6 -11 0
1056 352 2 -0.35 29.545389474217377 65.99312303694599 6.260358094756453 -6 -11 0
366 122 2 -0.35 39.96668028460954 69.77383780190294 4.22532806600935 0 2 0
364 122 1 0.7 39.59669930177949 70.41371512390371 5.119347688350518 0 2 0
365 122 2 -0.35 39.22671831894944 71.05359244590448 6.013367310691686 0 2 0
1388 463 2 -0.35 53.09871572321734 69.97922948355496 14.742040692204197 3 8 0
1387 463 1 0.7 52.986152888096775 70.1503809866634 13.600271551296458 3 8 0
1389 463 2 -0.35 52.87359005297621 70.32153248977184 12.458502410388718 3 8 0
1475 492 2 -0.35 57.37796673270413 75.15783597678578 3.0509747209728775 -5 -2 -4
1474 492 1 0.7 56.34421392949664 75.60336609538618 2.7708710700147106 -5 -2 -4
1476 492 2 -0.35 55.31046112628914 76.0488962139866 2.4907674190565436 -5 -2 -4
695 232 2 -0.35 59.49974555167298 73.02542304266771 0.6518267364706534 -4 4 -2
694 232 1 0.7 59.19486534516348 72.22261002322061 1.4316596131079884 -4 4 -2
696 232 2 -0.35 58.88998513865398 71.4197970037735 2.2114924897453236 -4 4 -2
1259 420 2 -0.35 62.261304415985705 77.21931983260315 15.778138913564284 0 3 1
998 333 2 -0.35 80.7171881201853 73.11100579604809 1.6364193363372421 -5 -2 0
997 333 1 0.7 80.20788771512325 72.06924370959608 1.6671577916283136 -5 -2 0
999 333 2 -0.35 79.6985873100612 71.02748162314408 1.6978962469193852 -5 -2 0
566 189 2 -0.35 88.69138344560474 73.82099158610104 9.903804347278392 0 0 3
565 189 1 0.7 87.75855458282535 74.41481047336876 9.553362566251366 0 0 3
567 189 2 -0.35 86.82572572004595 75.00862936063648 9.20292078522434 0 0 3
1392 464 2 -0.35 31.9045052253588 80.57786210192656 8.83404575334576 4 -4 1
1390 464 1 0.7 31.205894218963085 80.1242638562937 8.026709829890127 4 -4 1
1391 464 2 -0.35 30.50728321256737 79.67066561066083 7.219373906434492 4 -4 1
918 306 2 -0.35 17.750652516311895 90.48331260338612 4.813130834829695 6 -5 7
916 306 1 0.7 16.69050417353335 90.90348569219655 5.025592753170616 6 -5 7
917 306 2 -0.35 15.6303558307548 91.32365878100698 5.238054671511537 6 -5 7
1084 362 1 0.7 30.107800516288307 88.56267321168495 15.0394327022225 0 2 -6
371 124 2 -0.35 29.381483819466844 87.9331889050486 12.27777567423066 -1 -5 3
1085 362 2 -0.35 29.8041487443994 87.50086884129603 15.394351116018349 0 2 -6
370 124 1 0.7 28.460395920237605 87.24780800767772 12.11209493482208 -1 -5 3
372 124 2 -0.35 27.539308021008367 86.56242711030684 11.9464141954135 -1 -5 3
1086 362 2 -0.35 30.411452288177216 89.62447758207388 14.68451428842665 0 2 -6
1394 465 2 -0.35 16.871658685532765 86.54105305774868 15.137819270270962 0 1 -5
504 168 2 -0.35 20.53716849029242 82.67910658130151 93.89399197665252 1 5 1
646 216 1 0.7 37.615327906387115 91.82726064935362 6.212976189271178 4 -3 6
648 216 2 -0.35 38.22926540170654 92.81125690177797 6.23376385514028 4 -3 6
1115 372 2 -0.35 35.3325425579569 85.67443241130108 94.99394685382315 3 -4 -3
1114 372 1 0.7 35.57595053864097 85.72209779288076 1.12711964132641 3 -4 -2
647 216 2 -0.35 37.001390411067696 90.84326439692929 6.192188523402074 4 -3 6
1116 372 2 -0.35 35.819358519325036 85.76976317446044 2.2602924288296764 3 -4 -2
1113 371 2 -0.35 35.55267897271306 88.2215396798546 11.547124251255067 0 -4 5
1112 371 2 -0.35 33.60059384501461 87.74552199205286 10.387309259488347 0 -4 5
1111 371 1 0.7 34.576636408863834 87.98353083595373 10.967216755371707 0 -4 5
944 315 2 -0.35 60.38784137178344 94.2251017986856 15.117593334043063 -4 0 -2
943 315 1 0.7 61.47228779932925 94.05287002771986 14.74354499110925 -4 0 -2
945 315 2 -0.35 62.556734226875065 93.88063825675414 14.369496648175438 -4 0 -2
78 26 2 -0.35 61.04735226537712 90.98816315570693 14.787816576243095 2 3 5
77 26 2 -0.35 61.268579514042706 91.20966507941658 12.489035289944207 2 3 5
76 26 1 0.7 61.157965889709914 91.09891411756176 13.63842593309365 2 3 5
627 209 2 -0.35 61.372473355854076 87.59290982579404 17.03673218727103 2 -5 3
884 295 2 -0.35 55.85245386916153 87.77840536933202 15.287670554145803 1 -6 -4
1092 364 2 -0.35 56.01849448928499 88.20667833672853 4.013158674287687 5 -5 3
883 295 1 0.7 54.88372297261453 87.37901849244756 15.785315580892119 1 -6 -4
1091 364 2 -0.35 57.84946863596555 86.98886237719158 4.752657127893568 5 -5 3
1090 364 1 0.7 56.93398156262527 87.59777035696005 4.382907901090627 5 -5 3
283 95 1 0.7 69.55385176342635 94.77146310348986 8.356031833476099 4 -2 -8
285 95 2 -0.35 68.49906062580865 94.28874945888043 8.35424484950366 4 -2 -8
48 16 2 -0.35 76.39294468236383 80.63621032961885 6.8663196091622245 -2 2 2
46 16 1 0.7 75.38192939998748 80.64522048402581 7.434973208394017 -2 2 2
47 16 2 -0.35 74.37091411761114 80.65423063843278 8.00362680762581 -2 2 2
305 102 2 -0.35 80.4439655473385 83.54120835066242 4.55926730011186 -6 0 7
1279 427 1 0.7 72.1486487495484 88.490608078093 13.631501382733843 -6 -2 -4
1280 427 2 -0.35 72.0914738468308 88.04442031896554 12.562273851238904 -6 -2 -4
1281 427 2 -0.35 72.205823652266 88.93679583722047 14.70072891422878 -6 -2 -4
6 2 2 -0.35 78.76000233369606 91.34140640280617 3.231801047667657 -1 -2 1
4 2 1 0.7 79.44015049667016 91.95651808171903 3.9421784817605285 -1 -2 1
780 260 2 -0.35 70.45767084662526 81.06974588441328 11.609734254984904 2 -8 -8
778 260 1 0.7 70.01469180756175 80.46424376784681 12.494458368922983 2 -8 -8
779 260 2 -0.35 69.57171276849822 79.85874165128034 13.379182482861061 2 -8 -8
1310 437 2 -0.35 69.76675325716037 85.42093320908509 12.085785424617608 -6 -5 2
1309 437 1 0.7 70.82564359832048 85.22979766454183 12.519165683756986 -6 -5 2
1311 437 2 -0.35 71.88453393948059 85.03866211999856 12.952545942896364 -6 -5 2
1266 422 2 -0.35 68.88772574017528 86.16864317278127 15.048216583995483 5 -6 6
1265 422 2 -0.35 66.61963876020101 86.09636562844871 15.530873198849788 5 -6 6
1264 422 1 0.7 67.75368225018815 86.13250440061499 15.289544891422635 5 -6 6
304 102 1 0.7 80.20047531887256 82.43217062589636 4.321890313679023 -6 0 7
306 102 2 -0.35 79.95698509040665 81.32313290113031 4.084513327246186 -6 0 7
5 2 2 -0.35 80.12029865964425 92.5716297606319 4.652555915853401 -1 -2 1
1500 500 2 -0.35 81.27018147465398 90.03107529471855 94.397991556838 -2 -3 -2
860 287 2 -0.35 94.17401855223407 83.74587345051138 6.000057841872345 4 0 -1
859 287 1 0.7 93.59252033421367 83.48493569964991 5.030846145381612 4 0 -1
861 287 2 -0.35 93.01102211619329 83.22399794878844 4.061634448890878 4 0 -1
513 171 2 -0.35 80.93853946665394 89.39366454380946 4.369656537358071 1 -6 1
511 171 1 0.7 81.63428629045522 88.65979729085612 4.937965618942079 1 -6 1
512 171 2 -0.35 82.3300331142565 87.92593003790276 5.506274700526087 1 -6 1
328 110 1 0.7 88.72213250758742 80.01032895016382 12.228109886544223 -5 0 -3
329 110 2 -0.35 89.42096265600075 79.11800142243207 11.981152386314632 -5 0 -3
330 110 2 -0.35 88.0233023591741 80.90265647789559 12.475067386773814 -5 0 -3
524 175 2 -0.35 82.31337510876133 89.58092710001114 14.669426425094908 -5 9 1
523 175 1 0.7 82.77315847628833 88.96926101187624 15.541242834420649 -5 9 1
600 200 2 -0.35 7.068927731484159 11.364744050922294 20.059212822956756 3 0 2
598 200 1 0.7 7.1759985926769 10.585256967159411 19.206842177679185 3 0 2
599 200 2 -0.35 7.283069453869642 9.805769883396529 18.35447153240161 3 0 2
1349 450 2 -0.35 5.642047603415296 7.34306234300194 15.471397253478056 8 -3 7
1348 450 1 0.7 5.7369163337561195 6.67623009511535 16.415820186904156 8 -3 7
1350 450 2 -0.35 5.831785064096943 6.009397847228758 17.360243120330257 8 -3 7
1079 360 2 -0.35 10.368771842634487 11.322241888131826 24.785107384593097 -2 3 -5
1078 360 1 0.7 9.673436757041442 10.696745247114173 25.471302015013922 -2 3 -5
1080 360 2 -0.35 8.978101671448394 10.071248606096521 26.157496645434744 -2 3 -5
547 183 1 0.7 5.3754354429095486 11.576388359034482 15.934700781507177 3 -6 4
548 183 2 -0.35 4.987517259264588 11.452002985036447 17.02081668763003 3 -6 4
1164 388 2 -0.35 28.22339812340561 2.93743126585243 20.884854485688773 7 0 -3
1162 388 1 0.7 28.17804549998688 2.163914439248002 20.02159620538594 7 0 -3
1163 388 2 -0.35 28.13269287656815 1.3903976126435742 19.158337925083103 7 0 -3
148 50 1 0.7 47.45569503306237 10.437667611970529 21.61265297913131 -6 -2 9
150 50 2 -0.35 46.32041010840416 10.20710524304015 21.672395207725398 -6 -2 9
1183 395 1 0.7 35.42504493072181 0.9413206088270537 22.20407375279857 2 3 2
1184 395 2 -0.35 35.49335444798575 2.064329513298716 22.486535803928316 2 3 2
149 50 2 -0.35 48.590979957720585 10.668229980900907 21.55291075053722 -6 -2 9
444 148 2 -0.35 59.917102439881496 7.015328058642948 25.4737691592456 2 -4 -1
442 148 1 0.7 60.54216686000555 6.660951265851163 24.56310371056338 2 -4 -1
443 148 2 -0.35 61.1672312801296 6.30657447305938 23.652438261881155 2 -4 -1
966 322 2 -0.35 47.52090400482901 13.983750352293029 30.577525881247077 -8 1 -1
964 322 1 0.7 47.69060868753915 13.847965560105834 29.438068637259683 -8 1 -1
965 322 2 -0.35 47.86031337024928 13.71218076791864 28.29861139327229 -8 1 -1
1299 433 2 -0.35 50.003676413402985 1.84251446168116 17.186678200230546 2 -1 3
453 151 2 -0.35 85.23605053229079 9.721388155078207 29.378724738681964 -7 5 5
1341 447 2 -0.35 85.18022538262188 12.667320629808856 20.560826662680203 -8 3 -1
1339 447 1 0.7 84.2382652505066 13.319602311697077 20.37960934293409 -8 3 -1
1340 447 2 -0.35 83.29630511839132 13.971883993585296 20.198392023187978 -8 3 -1
451 151 1 0.7 84.80462955762671 9.029832825586226 28.553359868537125 -7 5 5
452 151 2 -0.35 84.37320858296262 8.338277496094246 27.72799499839229 -7 5 5
501 167 2 -0.35 4.410691953306549 20.635994560455664 17.19243214530905 -2 -3 4
499 167 1 0.7 4.679436845211843 21.624404174137187 17.736879221394677 -2 -3 4
500 167 2 -0.35 4.948181737117135 22.61281378781871 18.281326297480305 -2 -3 4
81 27 2 -0.35 4.234147415817319 19.32591329713916 25.607250453132664 4 -5 0
79 27 1 0.7 3.45251453017753 19.272230714119036 24.751815936429928 4 -5 0
80 27 2 -0.35 2.670881644537741 19.218548131098913 23.896381419727195 4 -5 0
1046 349 2 -0.35 35.54630158100646 25.065463147183138 24.846354640329178 2 -7 4
1045 349 1 0.7 34.54249242463892 25.24564415016184 25.399076979079865 2 -7 4
137 46 2 -0.35 42.15657660868507 31.046651852144134 23.909763199049312 -5 4 6
138 46 2 -0.35 41.55371065371882 28.93281008812354 24.651804732267077 -5 4 6
136 46 1 0.7 41.85514363120195 29.989730970133834 24.280783965658195 -5 4 6
1047 349 2 -0.35 33.538683268271384 25.425825153140543 25.951799317830545 2 -7 4
976 326 1 0.7 56.5650035295858 27.033513786991296 20.195574855951342 -10 0 1
977 326 2 -0.35 57.42655680524996 27.233028629761332 19.4448953100008 -10 0 1
978 326 2 -0.35 55.703450253921645 26.833998944221264 20.946254401901886 -10 0 1
1211 404 2 -0.35 70.99427815056134 18.792126709535225 19.28960174159484 7 -2 -5
1210 404 1 0.7 70.0011166654731 19.247676590062547 19.679094451272665 7 -2 -5
317 106 2 -0.35 66.8470105527774 25.49849341216262 16.14932813012346 4 -1 -1
117 39 2 -0.35 77.4872221695441 17.34014903913048 16.326059872532262 -1 -6 -6
1212 404 2 -0.35 69.00795518038487 19.70322647058987 20.06858716095049 7 -2 -5
316 106 1 0.7 66.11501236091067 26.36012608628433 16.40888117285017 4 -1 -1
800 267 2 -0.35 73.82227456959679 24.216218220399636 23.004897894129133 1 -5 -4
799 267 1 0.7 72.7132381573366 24.539105797062614 22.898212144763388 1 -5 -4
801 267 2 -0.35 71.60420174507641 24.861993373725596 22.791526395397643 1 -5 -4
126 42 2 -0.35 67.94615100343985 22.502017965560597 24.759240155184106 -4 -4 1
124 42 1 0.7 69.07154369652359 22.223659018236212 24.719145482237103 -4 -4 1
125 42 2 -0.35 70.19693638960733 21.945300070911827 24.679050809290096 -4 -4 1
1463 488 2 -0.35 77.8040021877046 24.990189864295445 22.975806959382027 -7 3 -3
1462 488 1 0.7 77.33433167850387 24.264597531280632 23.74945117932935 -7 3 -3
1464 488 2 -0.35 76.86466116930316 23.539005198265823 24.523095399276674 -7 3 -3
775 259 1 0.7 72.74171262464908 27.566160220301686 17.556498388924275 1 -8 3
776 259 2 -0.35 72.78304483685707 26.414891241720117 17.42058890731921 1 -8 3
777 259 2 -0.35 72.70038041244109 28.71742919888326 17.69240787052934 1 -8 3
318 106 2 -0.35 65.38301416904393 27.22175876040604 16.668434215576877 4 -1 -1
115 39 1 0.7 78.36340252367727 16.652832774136595 16.650874187036024 -1 -6 -6
116 39 2 -0.35 79.23958287781042 15.965516509142708 16.97568850153979 -1 -6 -6
960 320 2 -0.35 10.201064122016335 44.33760421382113 17.711034720471236 1 -1 -2
958 320 1 0.7 11.02393320707271 45.13908567107835 17.549436630969073 1 -1 -2
959 320 2 -0.35 11.846802292129084 45.94056712833557 17.387838541466913 1 -1 -2
742 248 1 0.7 4.0921732982202705 32.64770380903857 21.519134350180263 9 9 1
744 248 2 -0.35 3.8239522757464646 32.64415408691256 20.3905755867239 9 9 1
743 248 2 -0.35 4.360394320694076 32.65125353116458 22.647693113636624 9 9 1
1029 343 2 -0.35 5.253887109090362 35.00150532603079 18.987132631906 -5 -2 3
1028 343 2 -0.35 3.6668486427440032 35.85416374443199 20.448872187322646 -5 -2 3
1027 343 1 0.7 4.460367875917183 35.42783453523139 19.718002409614325 -5 -2 3
1083 361 2 -0.35 2.0348651975579806 36.826255253136836 22.602122345884013 3 1 6
1081 361 1 0.7 2.2835998644220403 37.75189423497563 23.255516209338502 3 1 6
1082 361 2 -0.35 2.5323345312860996 38.67753321681443 23.908910072792995 3 1 6
194 65 2 -0.35 23.679597380792202 48.33558650771475 21.214934570929636 0 10 -3
141 47 2 -0.35 19.57397002455623 33.82789564597745 20.27531397539877 -3 3 1
140 47 2 -0.35 17.44090267262063 33.045275676099635 20.74428055720338 -3 3 1
139 47 1 0.7 18.50743634858843 33.43658566103854 20.509797266301074 -3 3 1
292 98 1 0.7 17.973721215430945 43.28770907559358 21.859034324569656 -1 -10 -8
294 98 2 -0.35 19.044835677820153 43.150023751777105 22.28253941316564 -1 -10 -8
293 98 2 -0.35 16.90260675304174 43.42539439941006 21.435529235973675 -1 -10 -8
825 275 2 -0.35 17.156736195952714 46.35127946528723 31.20410366467366 7 1 1
311 104 2 -0.35 23.48715268916919 42.98545547858468 29.876299541039714 -2 3 -5
310 104 1 0.7 23.53901311532561 43.98310100235269 29.28671162977585 -2 3 -5
312 104 2 -0.35 23.590873541482033 44.98074652612069 28.69712371851199 -2 3 -5
758 253 2 -0.35 46.659895128731705 41.811677184246356 25.940437104157436 -1 6 -9
757 253 1 0.7 46.06511809802122 40.92149811850124 25.493870743299883 -1 6 -9
759 253 2 -0.35 45.47034106731074 40.031319052756125 25.04730438244233 -1 6 -9
576 192 2 -0.35 41.84105558728269 46.40073297091503 29.34303091447563 -1 2 0
574 192 1 0.7 42.612968022197364 47.07982159838971 28.805825340364514 -1 2 0
731 244 2 -0.35 50.929742635510294 36.692281586075744 27.115648697813256 5 0 -3
730 244 1 0.7 50.17829151484315 35.94413496400123 27.585965447595804 5 0 -3
732 244 2 -0.35 49.426840394176004 35.195988341926714 28.05628219737835 5 0 -3
723 241 2 -0.35 51.38374791065472 44.59132653362428 18.617317243401832 -2 0 1
721 241 1 0.7 52.19340765878937 44.3905650807941 17.811249050688428 -2 0 1
468 156 2 -0.35 55.84203093369583 33.656328729050394 31.096309863630328 -3 1 0
722 241 2 -0.35 53.00306740692402 44.18980362796392 17.005180857975024 -2 0 1
467 156 2 -0.35 56.32826782903618 35.49227158560868 29.76391070832242 -3 1 0
466 156 1 0.7 56.085149381366 34.57430015732954 30.430110285976376 -3 1 0
274 92 1 0.7 59.78478920067596 36.50312926694173 30.351657081242156 -1 0 2
275 92 2 -0.35 59.718738314411915 37.566041555065965 30.811499171719646 -1 0 2
276 92 2 -0.35 59.850840086939996 35.440216978817496 29.891814990764665 -1 0 2
972 324 2 -0.35 69.0871579754371 47.353018618501714 21.571655352118725 -2 3 -1
970 324 1 0.7 69.12845863055512 48.254916446499806 22.29999219983497 -2 3 -1
92 31 2 -0.35 77.1853720247016 41.94679476033189 31.699657800689504 -8 -5 -7
91 31 1 0.7 76.34419953573287 42.43912884638374 31.070661782010472 -8 -5 -7
93 31 2 -0.35 75.50302704676415 42.93146293243558 30.441665763331436 -8 -5 -7
242 81 2 -0.35 78.1400253393202 42.31167449665998 28.761559667032163 -2 3 -3
703 235 1 0.7 82.55095105871887 33.778835182406254 26.882230764647986 0 -8 6
705 235 2 -0.35 82.74420008162933 34.16971502998873 25.80730390206669 0 -8 6
704 235 2 -0.35 82.35770203580839 33.38795533482378 27.957157627229282 0 -8 6
1170 390 2 -0.35 88.04741011298377 43.874085806934 15.607863590225664 -7 0 2
1168 390 1 0.7 88.03061300933355 43.77366188911796 16.763386369768103 -7 0 2
1169 390 2 -0.35 88.01381590568332 43.673237971301916 17.918909149310544 -7 0 2
1427 476 2 -0.35 85.14352932601177 43.865441645217764 20.937779395535195 3 5 6
1426 476 1 0.7 84.84335659651555 44.10854165621618 19.843979268856796 3 5 6
1428 476 2 -0.35 84.54318386701934 44.3516416672146 18.7501791421784 3 5 6
241 81 1 0.7 78.36828252033843 42.75487568577966 27.714147921215194 -2 3 -3
243 81 2 -0.35 78.59653970135666 43.198076874899336 26.666736175398224 -2 3 -3
1208 403 2 -0.35 93.2266871382411 46.53914385739896 26.451867375954 -3 2 0
25 9 1 0.7 6.807674081865177 51.66963357771425 22.04583080092626 6 -5 6