LAMMPS (29 Aug 2024 - Update 1)
  using 1 OpenMP thread(s) per MPI task
package gpu 1 gpuID 0
# GCMC for CO2 molecular fluid, rigid/small/nvt dynamics
# Rigid CO2 TraPPE model
# [Potoff and J.I. Siepmann, Vapor-liquid equilibria of
# mixtures containing alkanes, carbon dioxide and
# nitrogen AIChE J., 47,1676-1682 (2001)].

# global model settings

units           real
atom_style      full
boundary        p p p
pair_style      lj/cut/coul/long  12
pair_modify     mix arithmetic shift yes
kspace_style    pppm 1.0e-4
bond_style      harmonic
angle_style     harmonic
neigh_modify    one 4000

# box, start molecules on simple cubic lattice
region          mbox block 0 ${lbox} 0 ${lbox} 0 ${lbox} units box
region          mbox block 0 95 0 ${lbox} 0 ${lbox} units box
region          mbox block 0 95 0 95 0 ${lbox} units box
region          mbox block 0 95 0 95 0 95 units box
create_box      2 mbox                                       bond/types 1                                angle/types 1                               extra/bond/per/atom 2                       extra/angle/per/atom 1                      extra/special/per/atom 2
Created orthogonal box = (0 0 0) to (95 95 95)
  1 by 1 by 1 MPI processor grid
molecule        co2mol ../CO2.txt
Read molecule template co2mol:
# CO2 molecule file. TraPPE model.
  1 molecules
  0 fragments
  3 atoms with max type 2
  2 bonds with max type 1
  1 angles with max type 1
  0 dihedrals with max type 0
  0 impropers with max type 0
create_atoms   	0 random ${nmols} 34578 mbox mol co2mol 464563 overlap 1.2
create_atoms   	0 random 500 34578 mbox mol co2mol 464563 overlap 1.2
Created 1500 atoms
  using lattice units in orthogonal box = (0 0 0) to (95 95 95)
  create_atoms CPU = 0.013 seconds

# rigid CO2 TraPPE model

pair_coeff      1   1  0.053649   2.800
pair_coeff      2   2  0.156973   3.050
bond_coeff      1       0       1.16
angle_coeff     1       0       180

# masses

mass 1 12.0107
mass 2 15.9994

write_data init_conf.data  pair ij
System init for write_data ...
PPPM initialization ...
  using 12-bit tables for long-range coulomb (src/kspace.cpp:342)
  G vector (1/distance) = 0.17959966
  grid = 24 24 24
  stencil order = 5
  estimated absolute RMS force accuracy = 0.02669929
  estimated relative force accuracy = 8.0404118e-05
  using double precision FFTW3
  3d grid and FFT values/proc = 24389 13824
Generated 1 of 1 mixed pair_coeff terms from arithmetic mixing rule

# MD settings

group           co2 type 1 2
1500 atoms in group co2
velocity       	all create 300 54654
timestep        0.25

# rigid constraints with thermostat
fix             myrigidnvt co2 rigid/nvt molecule temp 300 300 $(100*dt)
fix             myrigidnvt co2 rigid/nvt molecule temp 300 300 25
  500 rigid bodies with 1500 atoms

thermo 1000
thermo_style custom step temp density press ke pe etotal


variable    mvol equal vol
variable    mden equal density
variable	mtmp equal temp
variable    mpre equal press

fix mydat all ave/time 1 4000 4000 v_mtmp v_mden v_mpre file statistics.dat ## every 1ps

run 8000000 ## 1ns

CITE-CITE-CITE-CITE-CITE-CITE-CITE-CITE-CITE-CITE-CITE-CITE-CITE

Your simulation uses code contributions which should be cited:

- GPU package (short-range, long-range and three-body potentials): doi:10.1016/j.cpc.2010.12.021, doi:10.1016/j.cpc.2011.10.012, doi:10.1016/j.cpc.2013.08.002, doi:10.1016/j.commatsci.2014.10.068, doi:10.1016/j.cpc.2016.10.020, doi:10.3233/APC200086

@Article{Brown11,
 author = {W. M. Brown and P. Wang and S. J. Plimpton and A. N. Tharrington},
 title = {Implementing Molecular Dynamics on Hybrid High Performance Computers---Short Range Forces},
 journal = {Comput.\ Phys.\ Commun.},
 year =    2011,
 volume =  182,
 pages =   {898--911},
 doi =     {10.1016/j.cpc.2010.12.021}
}

@Article{Brown12,
 author = {W. M. Brown and A. Kohlmeyer and S. J. Plimpton and A. N. Tharrington},
 title = {Implementing Molecular Dynamics on Hybrid High Performance Computers - Particle-Particle Particle-Mesh},
 journal = {Comput.\ Phys.\ Commun.},
 year =    2012,
 volume =  183,
 doi =     {10.1016/j.cpc.2011.10.012},
 pages =   {449--459}
}

@Article{Brown13,
 author = {W. M. Brown and Y. Masako},
 title = {Implementing Molecular Dynamics on Hybrid High Performance Computers---Three-Body Potentials},
 journal = {Comput.\ Phys.\ Commun.},
 year =    2013,
 volume =  184,
 pages =   {2785--2793},
 doi =     {10.1016/j.cpc.2013.08.002},
}

@Article{Trung15,
 author = {T. D. Nguyen and S. J. Plimpton},
 title = {Accelerating Dissipative Particle Dynamics Simulations for Soft Matter Systems},
 journal = {Comput.\ Mater.\ Sci.},
 year =    2015,
 doi =     {10.1016/j.commatsci.2014.10.068},
 volume =  100,
 pages =   {173--180}
}

@Article{Trung17,
 author = {T. D. Nguyen},
 title = {{GPU}-Accelerated {T}ersoff Potentials for Massively Parallel
    Molecular Dynamics Simulations},
 journal = {Comput.\ Phys.\ Commun.},
 year =    2017,
 doi =     {10.1016/j.cpc.2016.10.020},
 volume =  212,
 pages =   {113--122}
}

@inproceedings{Nikolskiy19,
 author = {V. Nikolskiy and V. Stegailov},
 title = {{GPU} Acceleration of Four-Site Water Models in {LAMMPS}},
 booktitle = {Proceedings of the International Conference on Parallel
    Computing (ParCo 2019), Prague, Czech Republic},
 doi =     {10.3233/APC200086},
 year =    2019
}

CITE-CITE-CITE-CITE-CITE-CITE-CITE-CITE-CITE-CITE-CITE-CITE-CITE

PPPM initialization ...
  using 12-bit tables for long-range coulomb (src/kspace.cpp:342)
  G vector (1/distance) = 0.17959966
  grid = 24 24 24
  stencil order = 5
  estimated absolute RMS force accuracy = 0.02669929
  estimated relative force accuracy = 8.0404118e-05
  using double precision FFTW3
  3d grid and FFT values/proc = 24389 13824
Generated 1 of 1 mixed pair_coeff terms from arithmetic mixing rule
Per MPI rank memory allocation (min/avg/max) = 9.625 | 9.625 | 9.625 Mbytes
   Step          Temp         Density         Press          KinEng         PotEng         TotEng    
         0   305.66621      0.042618159   -1419.5542      758.3663       36949.057      37707.423    
      1000   306.68734      0.042618159    14.966728      760.89974     -56.343694      704.55605    
      2000   312.37512      0.042618159    29.353709      775.01128     -77.696185      697.31509    
      3000   300.53093      0.042618159    25.031307      745.62551     -90.311819      655.31369    
      4000   297.39004      0.042618159    15.918711      737.83288     -94.873038      642.95985    
      5000   292.07924      0.042618159    25.555174      724.65665     -107.41432      617.24233    
      6000   301.28759      0.042618159    26.355003      747.50282     -116.09965      631.40317    
      7000   315.54027      0.042618159    21.643576      782.86411     -124.45507      658.40904    
      8000   294.90233      0.042618159    46.007906      731.6608      -133.42038      598.24043    
      9000   292.97002      0.042618159    21.576482      726.86669     -132.59875      594.26794    
     10000   288.10976      0.042618159    21.998757      714.80826     -135.24076      579.5675     
     11000   309.49812      0.042618159    20.184305      767.87337     -136.44095      631.43242    
     12000   297.64989      0.042618159    25.730582      738.47759     -137.31917      601.15842    
     13000   290.55614      0.042618159    12.327036      720.87779     -142.13327      578.74452    
     14000   299.31745      0.042618159    21.864344      742.61485     -147.81908      594.79576    
     15000   305.24212      0.042618159    22.468999      757.3141      -150.76765      606.54645    
     16000   299.14604      0.042618159    11.516146      742.18958     -148.75018      593.4394     
     17000   306.25807      0.042618159    21.287997      759.83472     -158.62417      601.21055    
     18000   301.05409      0.042618159    24.709752      746.9235      -162.41219      584.51131    
     19000   293.10037      0.042618159    16.434541      727.1901      -164.11905      563.07104    
     20000   302.22783      0.042618159    20.024226      749.83558     -163.11629      586.71929    
     21000   300.8313       0.042618159    22.688037      746.37074     -165.76416      580.60658    
     22000   317.02651      0.042618159    27.689047      786.5515      -166.59263      619.95888    
     23000   298.51995      0.042618159    17.874292      740.63621     -172.18202      568.45419    
     24000   307.72305      0.042618159    20.450895      763.46936     -172.22343      591.24594    
     25000   318.97598      0.042618159    24.040996      791.38819     -169.53342      621.85477    
     26000   300.95283      0.042618159    19.995943      746.67227     -177.77568      568.89659    
     27000   281.47913      0.042618159    17.248373      698.35747     -176.59816      521.75931    
     28000   308.61814      0.042618159    14.515633      765.69012     -181.32571      584.36441    
     29000   291.06385      0.042618159    21.137286      722.13744     -176.99155      545.14588    
     30000   314.52258      0.042618159    22.96169       780.33919     -182.06267      598.27652    
     31000   296.5561       0.042618159    14.049778      735.76387     -187.74117      548.02269    
     32000   302.67098      0.042618159    32.927494      750.93504     -188.27642      562.65863    
     33000   298.68512      0.042618159    19.607962      741.04603     -184.04123      557.0048     
     34000   312.79281      0.042618159    19.377653      776.04758     -187.94557      588.10201    
     35000   295.21602      0.042618159    19.636937      732.43909     -191.6472       540.79189    
     36000   291.5879       0.042618159    23.276717      723.43761     -187.16835      536.26926    
     37000   287.78067      0.042618159    34.733906      713.99177     -178.24233      535.74944    
     38000   296.12173      0.042618159   -14.521336      734.68617     -188.07259      546.61358    
     39000   304.73606      0.042618159    16.630464      756.05857     -188.18638      567.87219    
     40000   297.84601      0.042618159    22.579402      738.96415     -187.00023      551.96393    
     41000   306.33349      0.042618159    29.444978      760.02184     -197.04549      562.97635    
     42000   288.88344      0.042618159    11.14033       716.72777     -195.55271      521.17506    
     43000   300.17249      0.042618159    3.2449757      744.73623     -200.64743      544.08881    
     44000   301.895        0.042618159    48.825004      749.00983     -189.44792      559.5619     
     45000   294.86152      0.042618159    15.535399      731.55956     -193.73347      537.82609    
     46000   293.85474      0.042618159    19.972937      729.06172     -193.5924       535.46932    
     47000   294.86581      0.042618159    22.379955      731.5702      -190.52791      541.04229    
     48000   310.34502      0.042618159    6.2945165      769.97454     -192.36914      577.6054     
     49000   295.90274      0.042618159    55.204889      734.14287     -194.09201      540.05086    
     50000   288.5306       0.042618159    5.4546698      715.85237     -191.80459      524.04778    
     51000   292.86142      0.042618159   -2.3491786      726.59725     -196.93573      529.66153    
     52000   308.71197      0.042618159    11.176363      765.9229      -198.74838      567.17452    
     53000   303.29003      0.042618159    43.953474      752.47092     -204.60009      547.87083    
     54000   299.28559      0.042618159    3.0043022      742.5358      -206.5671       535.96869    
     55000   312.27461      0.042618159    1.5711445      774.76193     -203.45658      571.30535    
     56000   297.16657      0.042618159    41.259725      737.27845     -193.01368      544.26477    
     57000   291.8303       0.042618159   -3.396539       724.03901     -198.58453      525.45448    
     58000   314.37042      0.042618159    29.440573      779.96169     -198.75165      581.21004    
     59000   299.82576      0.042618159    41.750499      743.87598     -189.74184      554.13414    
     60000   292.19931      0.042618159    16.035543      724.95454     -197.23318      527.72136    
     61000   288.93287      0.042618159   -0.91751286     716.85042     -191.21296      525.63746    
     62000   306.08913      0.042618159    5.1065793      759.41558     -182.17089      577.24468    
     63000   292.01883      0.042618159    27.255089      724.50677     -182.16215      542.34462    
     64000   289.43745      0.042618159    33.577729      718.10229     -186.81596      531.28633    
     65000   302.51795      0.042618159    8.8395581      750.55538     -177.8709       572.68448    
     66000   301.23906      0.042618159    18.291591      747.38242     -176.19986      571.18256    
     67000   302.42304      0.042618159    25.213336      750.3199      -167.6954       582.6245     
     68000   301.5288       0.042618159    16.368711      748.10127     -179.28213      568.81914    
     69000   302.68384      0.042618159    13.620653      750.96694     -170.31697      580.64997    
     70000   301.7395       0.042618159    19.087976      748.62403     -174.86548      573.75855    
     71000   291.61608      0.042618159    20.867026      723.50754     -173.25367      550.25387    
     72000   297.08568      0.042618159    20.965033      737.07777     -172.60835      564.46942    
     73000   305.95394      0.042618159    18.699214      759.08015     -187.0511       572.02905    
     74000   303.65911      0.042618159    22.116634      753.38661     -184.199        569.18762    
     75000   298.36625      0.042618159    22.768743      740.2549      -184.08488      556.17002    
     76000   293.44522      0.042618159    21.29611       728.04567     -176.94032      551.10535    
     77000   303.12527      0.042618159    31.316409      752.06215     -180.67816      571.38399    
     78000   292.9806       0.042618159    16.901806      726.89293     -169.83761      557.05533    
     79000   290.43031      0.042618159    16.610875      720.56559     -168.10613      552.45946    
     80000   310.87795      0.042618159    13.841291      771.29678     -172.95049      598.34628    
     81000   296.70726      0.042618159    24.062491      736.13889     -173.69186      562.44703    
     82000   291.50291      0.042618159    21.321532      723.22675     -173.15674      550.07001    
     83000   296.33636      0.042618159    12.954679      735.21868     -177.18384      558.03484    
     84000   305.00139      0.042618159    11.61479       756.71686     -174.21996      582.4969     
     85000   302.37529      0.042618159    18.848945      750.20142     -166.14202      584.0594     
     86000   290.5466       0.042618159    12.242919      720.85412     -165.36239      555.49173    
     87000   308.87058      0.042618159    23.18707       766.31642     -163.82013      602.49629    
     88000   301.67168      0.042618159    20.70275       748.45576     -161.93134      586.52442    
     89000   306.70766      0.042618159    19.374115      760.95015     -166.17104      594.77911    
     90000   289.52053      0.042618159    19.070159      718.30841     -158.35949      559.94891    
     91000   311.16046      0.042618159    18.431763      771.99767     -153.01058      618.98709    
     92000   286.70179      0.042618159    34.582264      711.31504     -146.77779      564.53725    
     93000   306.07508      0.042618159    6.2062936      759.38072     -156.36192      603.01879    
     94000   310.5425       0.042618159    20.009985      770.4645      -151.72214      618.74235    
     95000   312.38354      0.042618159    23.767948      775.03217     -151.36956      623.66261    
     96000   288.11361      0.042618159    16.33186       714.8178      -155.29629      559.52151    
     97000   303.26285      0.042618159    18.91648       752.40349     -164.57104      587.83246    
     98000   301.9165       0.042618159    19.012459      749.06316     -170.62724      578.43592    
     99000   311.54628      0.042618159    25.369386      772.95491     -167.67332      605.28159    
    100000   304.45214      0.042618159    21.528277      755.35415     -160.50288      594.85127    
    101000   293.8356       0.042618159    25.025317      729.01423     -168.99276      560.02147    
    102000   291.1601       0.042618159    4.5048294      722.37625     -163.4211       558.95514    
    103000   313.26347      0.042618159    43.134686      777.2153      -174.98654      602.22876    
    104000   300.12435      0.042618159    31.118532      744.61679     -179.61971      564.99709    
    105000   294.97209      0.042618159    18.950603      731.83389     -172.92432      558.90957    
    106000   297.01579      0.042618159    18.271967      736.90436     -169.17705      567.72731    
    107000   312.84767      0.042618159    15.668853      776.1837      -170.16775      606.01595    
    108000   291.00766      0.042618159    23.418345      721.99801     -166.71047      555.28754    
    109000   291.87416      0.042618159    15.985456      724.14783     -169.45917      554.68865    
    110000   315.22637      0.042618159    4.7546393      782.08531     -160.37406      621.71125    
    111000   312.18101      0.042618159    26.678204      774.52969     -157.51095      617.01874    
    112000   286.4404       0.042618159    37.552146      710.66653     -159.63119      551.03534    
    113000   299.01611      0.042618159    7.3773471      741.86722     -154.20419      587.66303    
    114000   310.695        0.042618159    20.839559      770.84286     -157.31557      613.52729    
    115000   293.42472      0.042618159    20.046283      727.99483     -159.25906      568.73577    
    116000   303.69192      0.042618159    8.0892854      753.46803     -152.74689      600.72114    
    117000   309.47475      0.042618159    22.741837      767.81539     -152.70593      615.10946    
    118000   294.1203       0.042618159    24.473237      729.72057     -158.5635       571.15708    
    119000   291.86798      0.042618159    16.562101      724.13251     -154.02121      570.1113     
    120000   326.7436       0.042618159    20.850223      810.65989     -159.60591      651.05398    
    121000   299.05036      0.042618159    17.841124      741.95219     -153.53358      588.41861    
    122000   291.10681      0.042618159    17.41142       722.24403     -156.94907      565.29496    
    123000   302.85727      0.042618159    20.016557      751.39724     -151.44082      599.95642    
    124000   316.69465      0.042618159    20.830549      785.72815     -152.96267      632.76548    
    125000   304.62698      0.042618159    18.7759        755.78793     -158.9599       596.82802    
    126000   283.20433      0.042618159    14.216178      702.63776     -167.53833      535.09943    
    127000   293.18745      0.042618159    14.458736      727.40613     -165.60533      561.80081    
    128000   308.76613      0.042618159    20.641576      766.05728     -162.15217      603.90511    
    129000   286.18046      0.042618159    20.160853      710.0216      -157.45549      552.56611    
    130000   301.79577      0.042618159    21.53757       748.76362     -158.77239      589.99123    
    131000   297.22466      0.042618159    16.550026      737.42257     -155.17074      582.25183    
    132000   299.47392      0.042618159    18.791376      743.00305     -150.41508      592.58797    
    133000   299.14835      0.042618159    20.770128      742.1953      -145.11178      597.08352    
    134000   300.7752       0.042618159    24.591344      746.23155     -150.31795      595.9136     
    135000   296.71982      0.042618159    15.9574        736.17006     -148.97355      587.19651    
    136000   299.42687      0.042618159    21.354956      742.88632     -149.98258      592.90374    
    137000   304.01423      0.042618159    19.911687      754.26768     -154.61525      599.65243    
    138000   308.90087      0.042618159    20.669936      766.39158     -149.78746      616.60412    
    139000   287.41873      0.042618159    19.158417      713.09379     -157.84436      555.24943    
    140000   307.73832      0.042618159    20.600895      763.50726     -156.72508      606.78218    
    141000   314.12266      0.042618159    18.088805      779.34698     -148.44539      630.9016     
    142000   296.88165      0.042618159    8.4815707      736.57155     -142.40766      594.1639     
    143000   284.65216      0.042618159    16.301319      706.22987     -146.76262      559.46725    
    144000   313.80225      0.042618159    26.01132       778.55203     -135.09004      643.46199    
    145000   315.18012      0.042618159    20.988991      781.97058     -130.49105      651.47953    
    146000   305.3354       0.042618159    11.096034      757.54555     -129.42818      628.11737    
    147000   284.8917       0.042618159    20.183259      706.82415     -135.74177      571.08238    
    148000   290.9313       0.042618159    28.440236      721.80858     -142.0347       579.77388    
    149000   304.69824      0.042618159    28.952523      755.96473     -124.12529      631.83944    
    150000   313.45681      0.042618159   -1.4727547      777.69499     -125.18256      652.51243    
    151000   287.45369      0.042618159    15.284897      713.18053     -124.47981      588.70072    
    152000   304.02349      0.042618159    29.113861      754.29065     -123.65237      630.63828    
    153000   306.38366      0.042618159   -28.049355      760.1463      -130.40737      629.73894    
    154000   299.71304      0.042618159    25.346722      743.59633     -120.09623      623.5001     
    155000   309.3096       0.042618159    45.979652      767.40563     -123.92737      643.47826    
    156000   304.54725      0.042618159    25.423424      755.59012     -130.14155      625.44856    
    157000   300.46035      0.042618159    7.0862599      745.4504      -131.21715      614.23324    
    158000   294.73469      0.042618159    30.396052      731.24488     -121.18019      610.06469    
    159000   301.35448      0.042618159    35.153899      747.66877     -112.23159      635.43718    
    160000   302.26315      0.042618159    19.354076      749.92321     -127.37742      622.54578    
    161000   297.79125      0.042618159    20.052692      738.8283      -117.88108      620.94722    
    162000   299.22455      0.042618159    18.93146       742.38436     -124.26042      618.12394    
    163000   304.59415      0.042618159    25.880006      755.70649     -127.7955       627.91099    
    164000   304.23802      0.042618159    23.028225      754.82292     -125.72064      629.10228    
    165000   301.59378      0.042618159   -1.1221771      748.26249     -130.78467      617.47783    
    166000   302.57787      0.042618159    23.812974      750.70404     -124.10657      626.59747    
    167000   309.96495      0.042618159    25.424648      769.03157     -113.77846      655.25311    
    168000   292.89773      0.042618159    23.237597      726.68733     -119.47038      607.21696    
    169000   300.82372      0.042618159    13.764276      746.35194     -119.45936      626.89258    
    170000   309.72939      0.042618159    23.791883      768.44716     -118.36461      650.08256    
    171000   292.54379      0.042618159    13.490255      725.80921     -116.53444      609.27477    
    172000   284.53297      0.042618159    29.034305      705.93413     -110.32388      595.61025    
    173000   311.74727      0.042618159    15.002417      773.45357     -103.21909      670.23449    
    174000   287.12469      0.042618159    12.446801      712.36426     -102.72607      609.63819    
    175000   311.65832      0.042618159    27.715841      773.23287     -106.87425      666.35862    
    176000   300.85665      0.042618159    19.931327      746.43363     -104.58343      641.8502     
    177000   286.79481      0.042618159    16.437669      711.54582     -109.96299      601.58283    
    178000   298.47229      0.042618159    29.852672      740.51797     -111.63176      628.88621    
    179000   297.26199      0.042618159    30.682718      737.51518     -108.77634      628.73884    
    180000   311.74376      0.042618159    17.917178      773.44485     -105.80762      667.63723    
    181000   284.78261      0.042618159    7.1873573      706.5535      -97.755156      608.79835    
    182000   285.60638      0.042618159    23.780999      708.59731     -100.39925      608.19806    
    183000   288.69899      0.042618159    23.786256      716.27016     -102.45113      613.81903    
    184000   294.34395      0.042618159    33.800533      730.27544     -96.529762      633.74568    
    185000   309.81201      0.042618159    1.7186209      768.65214     -92.107604      676.54453    
    186000   296.81486      0.042618159    10.981068      736.40585     -95.920281      640.48557    
    187000   300.02717      0.042618159    41.228897      744.37567     -91.574063      652.80161    
    188000   303.3092       0.042618159    20.925135      752.5185      -87.929689      664.58881    
    189000   306.25291      0.042618159    20.045072      759.8219      -91.453306      668.3686     
    190000   301.21316      0.042618159    18.784729      747.31814     -91.057335      656.26081    
    191000   291.35889      0.042618159    25.974074      722.86945     -88.657537      634.21191    
    192000   304.33411      0.042618159    39.840812      755.06132     -93.839604      661.22172    
    193000   308.54948      0.042618159    17.696488      765.51976     -93.768173      671.75159    
    194000   284.20303      0.042618159    1.6919088      705.11555     -89.76828       615.34727    
    195000   290.0119       0.042618159    26.412523      719.52752     -94.384143      625.14337    
    196000   303.7972       0.042618159    31.812279      753.72922     -94.971177      658.75805    
    197000   300.69572      0.042618159    20.295697      746.03438     -98.44633       647.58805    
    198000   294.23941      0.042618159    12.192661      730.01609     -94.010923      636.00517    
    199000   300.59978      0.042618159    27.841498      745.79635     -86.448499      659.34785    
    200000   302.25526      0.042618159    28.999768      749.90362     -94.651548      655.25207    
    201000   308.77555      0.042618159    16.218171      766.08065     -90.500197      675.58046    
    202000   304.32138      0.042618159    17.305792      755.02973     -90.760502      664.26923    
    203000   296.21083      0.042618159    26.178091      734.90723     -86.893395      648.01383    
    204000   296.30321      0.042618159    20.305572      735.13643     -85.939537      649.19689    
    205000   306.13475      0.042618159    15.994472      759.52876     -83.505833      676.02293    
    206000   294.72368      0.042618159    14.216498      731.21758     -88.88293       642.33465    
    207000   293.35987      0.042618159    20.765976      727.83393     -85.612911      642.22102    
    208000   307.45789      0.042618159    22.881703      762.81151     -88.994938      673.81657    
    209000   302.39683      0.042618159    18.532957      750.25487     -91.90783       658.34703    
    210000   302.41899      0.042618159    20.226217      750.30986     -83.895114      666.41475    
    211000   298.3957       0.042618159    21.045214      740.32795     -85.757156      654.5708     
    212000   295.57332      0.042618159    30.161689      733.32556     -81.336699      651.98886    
    213000   305.37853      0.042618159    22.819882      757.65254     -83.965777      673.68677    
    214000   309.57386      0.042618159    27.954043      768.06129     -74.593185      693.4681     
    215000   307.68284      0.042618159    19.848831      763.3696      -83.208943      680.16065    
    216000   288.67396      0.042618159    8.0867145      716.20804     -87.836432      628.37161    
    217000   299.31569      0.042618159    12.764008      742.61048     -88.934679      653.6758     
    218000   298.64124      0.042618159    25.984477      740.93715     -85.695136      655.24201    
    219000   295.03547      0.042618159    31.047547      731.99114     -80.306852      651.68429    
    220000   301.99124      0.042618159    25.917262      749.24859     -78.797707      670.45088    
    221000   314.01087      0.042618159    16.007105      779.06962     -81.621619      697.448      
    222000   304.65685      0.042618159    5.402823       755.86204     -75.711268      680.15077    
    223000   294.91893      0.042618159    24.526563      731.702       -75.300116      656.40189    
    224000   296.11992      0.042618159    27.874726      734.68167     -76.274048      658.40763    
    225000   304.10449      0.042618159    20.470485      754.49161     -78.281302      676.21031    
    226000   311.91791      0.042618159    17.161076      773.87693     -77.756457      696.12047    
    227000   301.19242      0.042618159    14.255438      747.2667      -81.970916      665.29579    
    228000   292.02599      0.042618159    20.188853      724.52452     -79.558788      644.96573    
    229000   301.98717      0.042618159    28.935946      749.23848     -79.711502      669.52698    
    230000   308.282        0.042618159    26.307156      764.85613     -79.799837      685.05629    
    231000   315.31592      0.042618159    3.6163934      782.30749     -82.187955      700.11953    
    232000   291.50678      0.042618159    16.44994       723.23636     -81.099932      642.13643    
    233000   295.90199      0.042618159    25.241539      734.14101     -89.729572      644.41143    
    234000   308.0895       0.042618159    29.409757      764.37855     -93.221996      671.15655    
    235000   290.831        0.042618159    3.6538675      721.55973     -86.904834      634.6549     
    236000   286.44719      0.042618159    29.64903       710.68337     -85.499346      625.18402    
    237000   309.85178      0.042618159    19.338361      768.7508      -84.050902      684.6999     
    238000   302.69949      0.042618159    12.359812      751.00577     -86.522635      664.48314    
    239000   296.24272      0.042618159    20.916731      734.98634     -82.856331      652.13001    
    240000   297.25648      0.042618159    26.718363      737.50151     -82.058115      655.4434     
    241000   309.44028      0.042618159    15.636835      767.72987     -81.473049      686.25682    
    242000   295.60687      0.042618159    11.727937      733.4088      -82.602819      650.80598    
    243000   299.18093      0.042618159    23.643599      742.27614     -82.36475       659.91139    
    244000   307.60721      0.042618159    20.503974      763.18196     -67.233214      695.94874    
    245000   286.70001      0.042618159    22.638876      711.31062     -69.327214      641.98341    
    246000   296.58927      0.042618159    20.760678      735.84614     -77.550552      658.29559    
    247000   313.65296      0.042618159    20.13154       778.18163     -70.915644      707.26599    
    248000   295.55538      0.042618159    34.630799      733.28106     -73.10309       660.17797    
    249000   298.1072       0.042618159    20.56454       739.61219     -79.994807      659.61738    
    250000   301.07635      0.042618159    14.811502      746.97872     -78.921754      668.05697    
    251000   302.67017      0.042618159    24.539863      750.93303     -77.18954       673.74349    
    252000   280.80426      0.042618159    31.515706      696.6831      -72.356283      624.32682    
    253000   292.324        0.042618159    18.121409      725.26391     -75.214936      650.04897    
    254000   304.71403      0.042618159    27.461444      756.00392     -67.330437      688.67348    
    255000   304.0243       0.042618159    25.073642      754.29267     -76.936438      677.35623    
    256000   296.75821      0.042618159    24.351726      736.2653      -66.973037      669.29227    
    257000   290.838        0.042618159    19.960116      721.5771      -72.904146      648.67295    
    258000   299.83819      0.042618159    26.740723      743.90681     -78.342496      665.56432    
    259000   298.36167      0.042618159    36.464433      740.24353     -81.320537      658.92299    
    260000   293.49692      0.042618159    24.626186      728.17395     -80.266575      647.90738    
    261000   302.15797      0.042618159    20.223459      749.66226     -77.663542      671.99872    
    262000   305.49438      0.042618159    22.069528      757.93997     -76.880334      681.05964    
    263000   299.26477      0.042618159    20.596814      742.48415     -76.939013      665.54514    
    264000   291.45682      0.042618159    18.326585      723.11239     -70.883611      652.22878    
    265000   299.64014      0.042618159    24.388824      743.41545     -69.637426      673.77803    
    266000   312.42133      0.042618159    25.201246      775.12594     -66.191634      708.93431    
    267000   290.33086      0.042618159    21.79297       720.31886     -69.696445      650.62241    
    268000   294.48684      0.042618159    22.377795      730.62997     -72.332625      658.29735    
    269000   303.92445      0.042618159    17.669541      754.04495     -71.863267      682.18168    
    270000   304.93371      0.042618159    15.770501      756.54894     -79.720523      676.82842    
    271000   298.17541      0.042618159    19.832768      739.78142     -79.576336      660.20509    
    272000   302.32383      0.042618159    25.544487      750.07376     -74.795315      675.27844    
    273000   302.32691      0.042618159    26.414158      750.0814      -74.104702      675.9767     
    274000   296.81999      0.042618159    15.060111      736.41858     -71.888511      664.53007    
    275000   300.9692       0.042618159    18.599469      746.71288     -80.965218      665.74767    
    276000   304.85655      0.042618159    22.441204      756.35749     -76.890548      679.46694    
    277000   297.71443      0.042618159    39.124971      738.6377      -73.35604       665.28166    
    278000   292.39628      0.042618159    34.001042      725.44322     -80.770999      644.67222    
    279000   291.87285      0.042618159    8.600351       724.14457     -85.763615      638.38096    
    280000   306.0604       0.042618159   -9.33462        759.34429     -83.686386      675.65791    
    281000   299.99688      0.042618159    20.84072       744.30053     -80.87422       663.42631    
    282000   305.33039      0.042618159    29.055404      757.53312     -82.198732      675.33439    
    283000   298.44673      0.042618159    19.744227      740.45455     -74.374394      666.08016    
    284000   311.25731      0.042618159    19.007891      772.23796     -77.615929      694.62203    
    285000   302.62347      0.042618159    21.120963      750.81717     -74.327951      676.48922    
    286000   293.42282      0.042618159    22.575026      727.99011     -78.541219      649.44889    
    287000   298.51197      0.042618159    28.319123      740.61641     -84.626751      655.98966    
    288000   316.56818      0.042618159    23.85277       785.41438     -74.125936      711.28844    
    289000   301.57865      0.042618159    20.017396      748.22494     -70.540314      677.68463    
    290000   293.6508       0.042618159    28.611155      728.55572     -74.211413      654.34431    
    291000   317.31986      0.042618159    23.01607       787.27933     -71.808471      715.47085    
    292000   293.16376      0.042618159    19.800754      727.34738     -73.697512      653.64987    
    293000   280.80844      0.042618159    21.37776       696.69349     -77.629085      619.06441    
    294000   303.57123      0.042618159    24.811783      753.16859     -83.164713      670.00388    
    295000   288.48656      0.042618159    22.414553      715.74311     -84.564779      631.17833    
    296000   290.48481      0.042618159    21.686542      720.70081     -85.779962      634.92085    
    297000   311.93366      0.042618159    21.175466      773.91602     -88.792986      685.12303    
    298000   300.25282      0.042618159    19.453449      744.93551     -89.003895      655.93162    
    299000   297.99366      0.042618159    22.146571      739.33049     -80.47364       658.85685    
    300000   300.00486      0.042618159    19.391577      744.32034     -80.008175      664.31216    
    301000   315.53331      0.042618159    19.465752      782.84683     -84.951856      697.89497    
    302000   300.56893      0.042618159    20.288722      745.71981     -81.511278      664.20853    
    303000   293.2082       0.042618159    19.363567      727.45763     -76.17073       651.2869     
    304000   306.1157       0.042618159    21.949285      759.48148     -74.941664      684.53982    
    305000   304.90274      0.042618159    20.736488      756.47211     -83.816527      672.65558    
    306000   299.80486      0.042618159    21.964107      743.82412     -81.675831      662.14829    
    307000   284.92899      0.042618159    19.431493      706.91667     -71.857611      635.05906    
    308000   294.09426      0.042618159    24.328107      729.65597     -70.663135      658.99283    
    309000   309.06177      0.042618159    27.748474      766.79077     -75.392317      691.39846    
    310000   324.25605      0.042618159    20.494158      804.48819     -77.59123       726.89696    
    311000   293.38529      0.042618159    24.662938      727.89699     -81.64666       646.25033    
    312000   312.02269      0.042618159    29.298784      774.13691     -89.59849       684.53842    
    313000   302.64895      0.042618159    14.897606      750.88038     -88.306904      662.57347    
    314000   292.97939      0.042618159    21.210156      726.88994     -76.141866      650.74807    
    315000   291.05102      0.042618159    17.738394      722.1056      -88.628079      633.47752    
    316000   311.83089      0.042618159    21.383328      773.66105     -86.255044      687.406      
    317000   299.91119      0.042618159    20.646507      744.08793     -78.174343      665.91359    
    318000   300.4063       0.042618159    22.15846       745.31632     -82.708989      662.60733    
    319000   301.7384       0.042618159    19.347197      748.6213      -79.573187      669.04811    
    320000   293.3644       0.042618159    25.942054      727.84516     -76.109165      651.736      
    321000   298.41273      0.042618159    26.479824      740.3702      -82.816598      657.55361    
    322000   302.03604      0.042618159    23.340852      749.35975     -76.526601      672.83315    
    323000   294.86718      0.042618159    16.293558      731.5736      -78.337185      653.23642    
    324000   297.24641      0.042618159    22.264901      737.47654     -78.293868      659.18267    
    325000   302.07691      0.042618159    19.569867      749.46114     -83.990807      665.47033    
    326000   303.94432      0.042618159    21.403735      754.09425     -81.236459      672.85779    
    327000   293.96779      0.042618159    22.020615      729.3422      -79.312497      650.0297     
    328000   303.97743      0.042618159    19.796826      754.17638     -71.472376      682.70401    
    329000   306.98257      0.042618159    24.672764      761.63222     -77.325162      684.30705    
    330000   284.35211      0.042618159    24.063442      705.48542     -82.979033      622.50639    
    331000   297.40043      0.042618159    18.102304      737.85867     -79.788686      658.06998    
    332000   294.87676      0.042618159    14.544448      731.59738     -79.607329      651.99005    
    333000   300.21235      0.042618159    20.393079      744.83511     -77.522633      667.31247    
    334000   291.38227      0.042618159    21.524594      722.92743     -75.96633       646.9611     
    335000   299.19815      0.042618159    18.691908      742.31886     -84.460677      657.85818    
    336000   288.07427      0.042618159    17.388597      714.72021     -82.664283      632.05593    
    337000   307.08593      0.042618159    14.016616      761.88866     -80.323953      681.56471    
    338000   304.34584      0.042618159    23.901849      755.09041     -77.979083      677.11133    
    339000   294.19249      0.042618159    19.195396      729.89968     -74.185769      655.71391    
    340000   312.88441      0.042618159    21.957108      776.27484     -71.603101      704.67174    
    341000   306.71549      0.042618159    29.143034      760.96959     -61.34971       699.61988    
    342000   293.16847      0.042618159    19.07969       727.35905     -69.490387      657.86866    
    343000   309.59044      0.042618159    21.478434      768.10241     -65.578292      702.52411    
    344000   301.86275      0.042618159    26.131556      748.92981     -68.438214      680.49159    
    345000   289.70928      0.042618159    30.449606      718.77672     -67.209862      651.56686    
    346000   302.67421      0.042618159    17.605744      750.94306     -72.138065      678.805      
    347000   310.66636      0.042618159    27.98546       770.77179     -76.1209        694.65089    
    348000   294.47986      0.042618159    22.178521      730.61266     -68.682925      661.92973    
    349000   292.49331      0.042618159    23.802299      725.68395     -67.714932      657.96902    
    350000   304.9718       0.042618159    23.781564      756.64344     -69.476584      687.16686    
    351000   316.06132      0.042618159    19.381399      784.15684     -75.530214      708.62663    
    352000   295.46339      0.042618159    14.153527      733.05281     -67.071976      665.98084    
    353000   282.27776      0.042618159    20.347158      700.33891     -65.957975      634.38094    
    354000   299.5453       0.042618159    25.361358      743.18014     -65.691259      677.48888    
    355000   307.89196      0.042618159    23.828122      763.88844     -65.096276      698.79217    
    356000   307.98071      0.042618159   -1.8293793      764.10863     -63.415399      700.69324    
    357000   284.14922      0.042618159    18.897723      704.98204     -59.992366      644.98967    
    358000   297.65137      0.042618159    31.58254       738.48127     -64.888168      673.5931     
    359000   306.35865      0.042618159    19.528852      760.08426     -65.495693      694.58857    
    360000   303.69891      0.042618159    13.159386      753.48536     -70.868145      682.61722    
    361000   302.9375       0.042618159    21.546366      751.59629     -68.615741      682.98055    
    362000   298.8205       0.042618159    29.279145      741.38189     -73.035697      668.34619    
    363000   296.2674       0.042618159    20.108089      735.04759     -71.540898      663.50669    
    364000   301.93388      0.042618159    3.9456016      749.10627     -68.873114      680.23316    
    365000   288.46835      0.042618159    22.959338      715.69792     -69.434766      646.26316    
    366000   301.24635      0.042618159    38.860703      747.4005      -66.554281      680.84622    
    367000   319.24689      0.042618159    22.602753      792.06032     -64.347813      727.71251    
    368000   312.42713      0.042618159    30.634732      775.14031     -62.139671      713.00064    
    369000   288.92152      0.042618159    18.438376      716.82226     -59.668239      657.15402    
    370000   297.35495      0.042618159    52.888698      737.74584     -62.686948      675.05889    
    371000   305.63582      0.042618159    20.780033      758.29089     -58.064058      700.22683    
    372000   300.41207      0.042618159    11.652748      745.33063     -69.15559       676.17504    
    373000   289.75487      0.042618159    22.359448      718.88983     -64.846621      654.04321    
    374000   300.82793      0.042618159    24.879732      746.36238     -64.251683      682.1107     
    375000   309.32761      0.042618159    20.798534      767.45032     -67.171244      700.27908    
    376000   313.95166      0.042618159    12.350749      778.92271     -74.998885      703.92383    
    377000   274.8905       0.042618159    9.772845       682.01091     -70.468217      611.5427     
    378000   293.80394      0.042618159    32.10689       728.93568     -75.757025      653.17866    
    379000   299.95244      0.042618159    22.431814      744.19028     -71.42241       672.76787    
    380000   306.05142      0.042618159    19.64456       759.32201     -74.340776      684.98124    
    381000   304.82247      0.042618159    22.116029      756.27295     -71.185353      685.08759    
    382000   301.48685      0.042618159    27.414821      747.99718     -69.946755      678.05042    
    383000   302.64518      0.042618159    20.352057      750.87103     -69.12807       681.74296    
    384000   292.67432      0.042618159    19.506658      726.13305     -63.70873       662.42432    
    385000   302.35456      0.042618159    30.599801      750.15        -58.637592      691.51241    
    386000   310.58321      0.042618159    12.63053       770.5655      -69.64894       700.91656    
    387000   290.46371      0.042618159    9.9569791      720.64847     -70.209879      650.43859    
    388000   294.57853      0.042618159    22.865221      730.85746     -64.977989      665.87947    
    389000   298.96657      0.042618159    21.138333      741.74429     -71.56584       670.17845    
    390000   300.51634      0.042618159    29.456046      745.58933     -60.880596      684.70874    
    391000   315.92343      0.042618159    23.790611      783.81474     -54.748048      729.06669    
    392000   292.84557      0.042618159    19.646408      726.55793     -65.880176      660.67776    
    393000   305.90701      0.042618159    24.681644      758.96372     -56.467296      702.49642    
    394000   294.76946      0.042618159    21.441132      731.33115     -68.60544       662.72571    
    395000   293.87271      0.042618159    21.584762      729.10629     -68.627329      660.47896    
    396000   318.37959      0.042618159    22.483286      789.90854     -66.844955      723.06358    
    397000   300.05465      0.042618159    21.324412      744.44386     -64.354323      680.08954    
    398000   305.95695      0.042618159    16.777244      759.08763     -62.465598      696.62203    
    399000   297.44647      0.042618159    5.2513575      737.97288     -62.960466      675.01242    
    400000   302.10309      0.042618159    15.116927      749.52609     -69.026665      680.49943    
    401000   296.78201      0.042618159    40.468231      736.32434     -65.517962      670.80638    
    402000   303.58217      0.042618159    25.934456      753.19572     -69.221697      683.97402    
    403000   305.74468      0.042618159    10.076007      758.56097     -71.345986      687.21498    
    404000   296.39528      0.042618159    23.41481       735.36487     -64.827151      670.53772    
    405000   298.16817      0.042618159    28.613179      739.76344     -70.210547      669.55289    
    406000   317.47952      0.042618159    6.8405603      787.67545     -69.742429      717.93302    
    407000   289.34822      0.042618159    16.935384      717.8809      -77.510606      640.3703     
    408000   283.57502      0.042618159    21.916894      703.55745     -72.880598      630.67685    
    409000   299.82497      0.042618159    28.236593      743.87401     -73.414292      670.45972    
    410000   315.71861      0.042618159    31.506935      783.30658     -73.032146      710.27444    
    411000   303.62722      0.042618159    19.634724      753.3075      -60.223647      693.08385    
    412000   290.48662      0.042618159    12.089583      720.70532     -63.088389      657.61693    
    413000   294.37735      0.042618159    21.352839      730.35831     -61.524396      668.83392    
    414000   293.70454      0.042618159    31.819532      728.68906     -60.452749      668.23631    
    415000   320.2941       0.042618159    21.259936      794.6585      -67.296218      727.36228    
    416000   303.60447      0.042618159    16.674219      753.25107     -70.396617      682.85445    
    417000   292.48369      0.042618159    31.989556      725.66011     -70.219857      655.44025    
    418000   308.00733      0.042618159    24.927263      764.17467     -69.365851      694.80882    
    419000   314.56058      0.042618159    14.703794      780.43346     -69.697733      710.73573    
    420000   304.46529      0.042618159    20.546956      755.38677     -70.244203      685.14256    
    421000   281.25154      0.042618159    19.041593      697.79283     -71.15415       626.63868    
    422000   289.07306      0.042618159    22.578395      717.19823     -68.580726      648.6175     
    423000   301.70625      0.042618159    31.909346      748.54152     -66.441785      682.09973    
    424000   324.21461      0.042618159    21.646295      804.38538     -66.052832      738.33255    
    425000   294.36668      0.042618159    17.603101      730.33186     -71.080445      659.25141    
    426000   290.85327      0.042618159    27.563991      721.61499     -70.389789      651.2252     
    427000   312.73391      0.042618159    26.056146      775.90146     -72.505635      703.39583    
    428000   307.70903      0.042618159    20.680594      763.43458     -68.719542      694.71504    
    429000   287.28116      0.042618159    18.018402      712.75249     -75.588426      637.16406    
    430000   288.18066      0.042618159    19.78295       714.98417     -69.782219      645.20195    
    431000   305.15984      0.042618159    21.332422      757.10997     -74.242731      682.86724    
    432000   297.16811      0.042618159    20.424843      737.28228     -63.570717      673.71156    
    433000   298.01691      0.042618159    10.039194      739.38816     -65.770977      673.61719    
    434000   307.0901       0.042618159    26.294778      761.89899     -65.455211      696.44378    
    435000   283.52328      0.042618159    20.307843      703.42906     -64.371087      639.05798    
    436000   308.6009       0.042618159    21.08799       765.64734     -60.987597      704.65975    
    437000   309.14067      0.042618159    19.667353      766.98651     -57.730551      709.25596    
    438000   290.73638      0.042618159    20.830407      721.32497     -61.328679      659.99629    
    439000   299.04909      0.042618159    25.44575       741.94904     -68.681194      673.26785    
    440000   321.07801      0.042618159    26.883329      796.6034      -60.137634      736.46576    
    441000   289.71258      0.042618159    18.675614      718.78489     -64.175524      654.60937    
    442000   292.91694      0.042618159    20.126785      726.73499     -67.220413      659.51458    
    443000   320.98449      0.042618159    23.987305      796.37136     -69.928241      726.44312    
    444000   303.23248      0.042618159    22.606208      752.32813     -68.253297      684.07483    
    445000   306.10515      0.042618159    21.107822      759.45533     -67.212558      692.24277    
    446000   290.61336      0.042618159    20.606135      721.01975     -68.813642      652.20611    
    447000   299.78439      0.042618159    20.306402      743.77334     -73.345135      670.42821    
    448000   298.03268      0.042618159    22.795863      739.42731     -76.453783      662.97352    
    449000   300.47098      0.042618159    30.074515      745.47677     -74.348444      671.12833    
    450000   299.67971      0.042618159    20.175947      743.51362     -76.410687      667.10293    
    451000   302.90248      0.042618159    19.100576      751.50939     -71.407411      680.10198    
    452000   295.5544       0.042618159    24.335899      733.2786      -73.69219       659.58641    
    453000   292.15654      0.042618159    30.886831      724.84844     -72.100699      652.74774    
    454000   299.57931      0.042618159    16.105888      743.26452     -66.889571      676.37495    
    455000   296.2862       0.042618159    25.407782      735.09423     -65.891935      669.20229    
    456000   299.14162      0.042618159    20.301694      742.1786      -66.517518      675.66108    
    457000   316.75609      0.042618159    21.685811      785.88059     -65.396181      720.4844     
    458000   296.5611       0.042618159    22.63365       735.77627     -66.249362      669.52691    
    459000   300.45827      0.042618159    18.155691      745.44524     -66.872383      678.57286    
    460000   303.44794      0.042618159    21.059478      752.8627      -68.25389       684.60881    
    461000   295.21634      0.042618159    25.748318      732.43988     -67.604442      664.83544    
    462000   302.82886      0.042618159    22.140536      751.32676     -75.837214      675.48955    
    463000   303.58719      0.042618159    24.470585      753.20819     -78.850843      674.35734    
    464000   292.86822      0.042618159    19.223545      726.61413     -78.02683       648.5873     
    465000   296.91792      0.042618159    18.530497      736.66153     -80.789235      655.8723     
    466000   298.22066      0.042618159    18.769295      739.89368     -74.715704      665.17798    
    467000   291.0973       0.042618159    22.188244      722.22043     -85.540923      636.6795     
    468000   287.19349      0.042618159    7.920913       712.53497     -84.656342      627.87862    
    469000   304.05322      0.042618159    22.189838      754.36441     -82.650069      671.71434    
    470000   297.73701      0.042618159    22.661222      738.69372     -73.013855      665.67987    
    471000   302.99079      0.042618159    21.163041      751.72851     -78.625945      673.10257    
    472000   287.14987      0.042618159    19.450335      712.42674     -82.530604      629.89614    
    473000   310.47686      0.042618159    21.831418      770.30165     -83.716129      686.58552    
    474000   292.30617      0.042618159    18.381641      725.21967     -83.361097      641.85857    
    475000   292.29909      0.042618159    17.740809      725.2021      -78.310858      646.89124    
    476000   304.83863      0.042618159    24.613965      756.31303     -75.096963      681.21607    
    477000   298.30852      0.042618159    21.850865      740.11165     -77.645322      662.46633    
    478000   300.08321      0.042618159    21.87295       744.5147      -76.925914      667.58879    
    479000   313.03033      0.042618159    24.16512       776.63689     -73.694611      702.94228    
    480000   298.99791      0.042618159    19.572248      741.82205     -74.935558      666.88649    
    481000   301.22097      0.042618159    17.69152       747.33753     -73.557798      673.77974    
    482000   281.43873      0.042618159    22.35699       698.25725     -68.432408      629.82485    
    483000   308.8595       0.042618159    25.340597      766.28893     -65.85691       700.43202    
    484000   310.39786      0.042618159    21.269731      770.10564     -67.853404      702.25223    
    485000   291.30796      0.042618159    24.739342      722.74308     -75.172683      647.5704     
    486000   293.88228      0.042618159    0.92849619     729.13004     -71.808991      657.32105    
    487000   299.64003      0.042618159    22.900268      743.41517     -71.319637      672.09553    
    488000   311.06509      0.042618159    35.257358      771.76105     -74.747295      697.01376    
    489000   303.66599      0.042618159    20.154761      753.40368     -69.779101      683.62458    
    490000   288.81439      0.042618159    27.119274      716.55646     -71.543685      645.01278    
    491000   293.33541      0.042618159    13.040967      727.77324     -79.457941      648.3153     
    492000   305.69895      0.042618159    14.957382      758.44751     -71.027838      687.41968    
    493000   291.53708      0.042618159    31.161808      723.31153     -67.103964      656.20757    
    494000   296.06546      0.042618159    11.729599      734.54656     -63.624731      670.92183    
    495000   296.65335      0.042618159    0.34500722     736.00513     -64.113873      671.89126    
    496000   306.43002      0.042618159    19.388818      760.26134     -60.801358      699.45998    
    497000   288.77345      0.042618159    39.14325       716.45488     -66.388778      650.0661     
    498000   310.24047      0.042618159    8.2449202      769.71517     -63.387027      706.32814    
    499000   310.19591      0.042618159    12.730834      769.6046      -64.552417      705.05218    
    500000   300.38256      0.042618159    21.656347      745.25741     -68.728353      676.52905    
    501000   285.75396      0.042618159    28.35821       708.96345     -75.457286      633.50616    
    502000   286.15605      0.042618159    26.03039       709.96106     -74.896823      635.06423    
    503000   313.61749      0.042618159    16.734839      778.09364     -76.957321      701.13632    
    504000   307.65134      0.042618159    24.850284      763.29145     -75.247432      688.04402    
    505000   291.28982      0.042618159    20.893411      722.69806     -72.474265      650.2238     
    506000   301.13509      0.042618159    16.324006      747.12445     -73.491989      673.63246    
    507000   304.1891       0.042618159    24.375         754.70153     -66.001123      688.70041    
    508000   296.17414      0.042618159    17.160996      734.81621     -78.107207      656.709      
    509000   299.14378      0.042618159    22.553852      742.18395     -68.755167      673.42879    
    510000   298.74411      0.042618159    20.307161      741.19236     -67.242008      673.95036    
    511000   297.12069      0.042618159    23.462746      737.16461     -66.041513      671.1231     
    512000   310.07867      0.042618159    27.119652      769.31372     -68.923651      700.39007    
    513000   296.08013      0.042618159    23.603781      734.58295     -63.661278      670.92167    
    514000   292.34079      0.042618159    21.573962      725.30557     -61.467262      663.83831    
    515000   300.73724      0.042618159    21.386834      746.13738     -64.32287       681.81451    
    516000   315.27069      0.042618159    22.000515      782.19528     -72.298834      709.89645    
    517000   299.01226      0.042618159    21.818624      741.85765     -64.952604      676.90505    
    518000   284.40326      0.042618159    19.439818      705.61233     -65.124143      640.48819    
    519000   294.34058      0.042618159    20.95697       730.2671      -63.175061      667.09204    
    520000   301.93959      0.042618159    21.554163      749.12045     -67.949795      681.17066    
    521000   287.69266      0.042618159    17.207574      713.77342     -66.903956      646.86946    
    522000   311.12303      0.042618159    24.863673      771.90481     -71.093251      700.81155    
    523000   300.08278      0.042618159    20.811685      744.51364     -76.344405      668.16924    
    524000   293.94629      0.042618159    19.255598      729.28886     -78.027097      651.26176    
    525000   304.20595      0.042618159    23.859167      754.74335     -70.621367      684.12198    
    526000   307.03809      0.042618159    26.255691      761.76997     -72.242171      689.5278     
    527000   298.77411      0.042618159    17.800759      741.26679     -77.151282      664.11551    
    528000   300.584        0.042618159    13.668271      745.7572      -70.385216      675.37198    
    529000   300.35532      0.042618159    21.313768      745.18984     -74.898108      670.29173    
    530000   294.34351      0.042618159    21.718209      730.27436     -80.4849        649.78946    
    531000   316.41088      0.042618159    22.062636      785.02413     -81.922051      703.10208    
    532000   291.77829      0.042618159    20.070627      723.90997     -75.594151      648.31582    
    533000   294.39796      0.042618159    19.169234      730.40945     -74.271582      656.13786    
    534000   306.41749      0.042618159    25.37426       760.23024     -79.102304      681.12794    
    535000   310.35035      0.042618159    20.720713      769.98777     -76.022409      693.96536    
    536000   303.27812      0.042618159    15.866024      752.44137     -74.462781      677.97859    
    537000   295.58629      0.042618159    27.49555       733.35774     -73.25384       660.1039     
    538000   302.53472      0.042618159    18.899686      750.59697     -78.877226      671.71975    
    539000   299.37242      0.042618159    14.259704      742.75121     -83.419884      659.33133    
    540000   298.74431      0.042618159    23.655593      741.19286     -78.581192      662.61167    
    541000   296.8105       0.042618159    28.169371      736.39503     -76.560835      659.8342     
    542000   311.212        0.042618159    8.5657766      772.12556     -69.28602       702.83954    
    543000   304.09068      0.042618159    7.8013531      754.45737     -76.543667      677.9137     
    544000   297.01169      0.042618159    17.73485       736.89419     -73.498441      663.39575    
    545000   293.80344      0.042618159    48.637392      728.93442     -74.249318      654.6851     
    546000   304.89301      0.042618159   -6.5218375      756.44797     -72.211221      684.23675    
    547000   296.82264      0.042618159    26.494595      736.42515     -68.275981      668.14917    
    548000   302.31416      0.042618159    23.051742      750.04976     -63.361865      686.68789    
    549000   287.93743      0.042618159    7.235895       714.3807      -59.089349      655.29135    
    550000   289.30393      0.042618159    19.053677      717.77103     -59.369745      658.40128    
    551000   305.16666      0.042618159    28.562944      757.12688     -66.723305      690.40358    
    552000   312.53303      0.042618159    22.123661      775.40306     -77.711714      697.69135    
    553000   312.13756      0.042618159    23.564198      774.42189     -73.020792      701.4011     
    554000   302.93336      0.042618159    17.533491      751.58602     -71.831159      679.75486    
    555000   287.995        0.042618159    20.635925      714.52354     -73.56206       640.96148    
    556000   290.22416      0.042618159    12.361322      720.05414     -78.335744      641.7184     
    557000   310.18963      0.042618159    20.601233      769.58903     -77.267831      692.3212     
    558000   305.31173      0.042618159    24.195509      757.48683     -72.585495      684.90133    
    559000   278.48484      0.042618159    21.946306      690.92856     -78.695554      612.23301    
    560000   300.46274      0.042618159    20.299988      745.45633     -72.132084      673.32425    
    561000   310.14606      0.042618159    22.008138      769.48093     -78.431513      691.04942    
    562000   291.16849      0.042618159    17.848472      722.39704     -74.187345      648.2097     
    563000   313.13127      0.042618159    24.003547      776.88732     -73.477786      703.40954    
    564000   318.54404      0.042618159    22.963297      790.31653     -76.720625      713.59591    
    565000   294.35678      0.042618159    17.457082      730.30728     -75.303332      655.00395    
    566000   300.15908      0.042618159    6.4753304      744.70296     -68.604577      676.09838    
    567000   299.50779      0.042618159    24.665003      743.08709     -68.80089       674.2862     
    568000   294.93093      0.042618159    22.516034      731.73176     -67.563818      664.16795    
    569000   298.74454      0.042618159    22.874784      741.19344     -72.403263      668.79018    
    570000   303.29677      0.042618159    20.531123      752.48764     -72.247717      680.23992    
    571000   307.42121      0.042618159    19.353074      762.72051     -71.968893      690.75161    
    572000   305.11356      0.042618159    20.293616      756.99515     -69.007363      687.98778    
    573000   280.27483      0.042618159    21.879063      695.36959     -70.446887      624.9227     
    574000   296.97078      0.042618159    22.782471      736.79269     -68.903694      667.889      
    575000   315.758        0.042618159    12.966772      783.40431     -68.906631      714.49768    
    576000   301.56053      0.042618159    16.071369      748.17999     -74.191771      673.98821    
    577000   280.44148      0.042618159    24.041807      695.78305     -80.651359      615.13169    
    578000   308.58611      0.042618159    31.013451      765.61063     -75.631227      689.97941    
    579000   308.54709      0.042618159    8.8158095      765.51382     -76.120211      689.39361    
    580000   298.13815      0.042618159    11.35499       739.68898     -70.575299      669.11368    
    581000   292.18474      0.042618159    22.174689      724.9184      -80.533643      644.38476    
    582000   316.02293      0.042618159    22.446193      784.06161     -83.305212      700.7564     
    583000   298.16334      0.042618159    20.805858      739.75147     -85.112153      654.63931    
    584000   308.80829      0.042618159    22.609605      766.16187     -85.539756      680.62212    
    585000   291.88275      0.042618159    18.808743      724.16915     -81.351056      642.81809    
    586000   300.56626      0.042618159    12.390021      745.71318     -80.56005       665.15313    
    587000   317.85077      0.042618159    12.384555      788.59651     -81.281835      707.31468    
    588000   301.14875      0.042618159    41.723161      747.15835     -82.505657      664.65269    
    589000   294.30808      0.042618159    24.011101      730.18647     -75.330219      654.85625    
    590000   308.22007      0.042618159    18.929765      764.70248     -73.444912      691.25757    
    591000   303.78225      0.042618159    23.442874      753.69214     -75.572177      678.11996    
    592000   279.66328      0.042618159    28.041926      693.85232     -74.921322      618.93099    
    593000   303.0655       0.042618159    21.974061      751.91387     -77.334293      674.57957    
    594000   305.33464      0.042618159    21.958024      757.54366     -75.530309      682.01335    
    595000   299.66544      0.042618159    22.471282      743.47822     -70.684647      672.79357    
    596000   288.66545      0.042618159    21.316878      716.18694     -72.247876      643.93906    
    597000   289.72623      0.042618159    19.723121      718.81875     -65.490399      653.32835    
    598000   307.86049      0.042618159    19.280132      763.81036     -69.084599      694.72576    
    599000   304.10419      0.042618159    29.52117       754.49089     -63.736927      690.75396    
    600000   295.58297      0.042618159    18.23116       733.34949     -64.576311      668.77318    
    601000   287.31856      0.042618159    18.880339      712.84526     -67.237691      645.60757    
    602000   304.92368      0.042618159    19.583532      756.52405     -71.860365      684.66369    
    603000   315.53606      0.042618159    18.909472      782.85367     -73.849737      709.00394    
    604000   291.81215      0.042618159    20.837998      723.994       -69.03424       654.95976    
    605000   298.41713      0.042618159    23.87298       740.38113     -69.190446      671.19069    
    606000   306.5735       0.042618159    20.13145       760.6173      -63.619113      696.99819    
    607000   296.31812      0.042618159    20.302227      735.17342     -60.030436      675.14299    
    608000   314.10164      0.042618159    17.819003      779.29482     -71.498031      707.79679    
    609000   303.23465      0.042618159    22.713692      752.33351     -67.135977      685.19754    
    610000   291.29262      0.042618159    26.239405      722.70502     -66.220007      656.48501    
    611000   301.67749      0.042618159    15.834482      748.47017     -67.241142      681.22903    
    612000   311.7243       0.042618159    23.059776      773.39658     -63.188247      710.20834    
    613000   295.07336      0.042618159    28.993151      732.08513     -66.40909       665.67604    
    614000   283.43834      0.042618159    6.8196         703.21834     -67.169059      636.04928    
    615000   320.20661      0.042618159    12.240582      794.44143     -63.912505      730.52892    
    616000   307.71215      0.042618159    31.043023      763.44234     -60.036063      703.40628    
    617000   287.28047      0.042618159    18.547559      712.75078     -60.926788      651.82399    
    618000   301.05499      0.042618159    5.7467066      746.92574     -65.746879      681.17886    
    619000   320.77961      0.042618159    15.293543      795.86306     -62.329287      733.53378    
    620000   300.45253      0.042618159    25.236772      745.43101     -65.347121      680.08389    
    621000   295.79379      0.042618159    30.322693      733.87256     -66.86015       667.01241    
    622000   302.29428      0.042618159    23.890765      750.00045     -70.476045      679.5244     
    623000   301.18798      0.042618159   -0.58888988     747.25567     -71.093486      676.16219    
    624000   308.87835      0.042618159    34.382472      766.3357      -59.429435      706.90626    
    625000   303.73567      0.042618159    23.442576      753.57658     -67.376867      686.19971    
    626000   307.59684      0.042618159    6.2076649      763.15623     -59.867451      703.28878    
    627000   301.62043      0.042618159    4.1345396      748.3286      -57.922906      690.40569    
    628000   300.35734      0.042618159    22.138586      745.19485     -58.686827      686.50802    
    629000   302.56437      0.042618159    31.180293      750.67055     -57.57418       693.09636    
    630000   311.70375      0.042618159   -3.1689627      773.34559     -56.49723       716.84836    
    631000   305.11447      0.042618159    35.650906      756.9974      -58.786344      698.21106    
    632000   293.40013      0.042618159    27.511059      727.93382     -60.605755      667.32806    
    633000   299.53017      0.042618159    25.050692      743.14261     -59.27613       683.86648    
    634000   296.27742      0.042618159    12.609255      735.07246     -57.613561      677.45889    
    635000   300.30916      0.042618159    20.854739      745.0753      -65.452257      679.62304    
    636000   299.36058      0.042618159    14.680523      742.72185     -64.164893      678.55695    
    637000   303.66077      0.042618159    21.910896      753.39075     -62.880651      690.5101     
    638000   295.29268      0.042618159    26.468228      732.62927     -66.226707      666.40257    
    639000   310.64833      0.042618159    30.516972      770.72706     -66.342348      704.38471    
    640000   303.16227      0.042618159    20.004957      752.15395     -69.36702       682.78693    
    641000   299.82324      0.042618159    37.202466      743.86972     -66.239664      677.63006    
    642000   304.04666      0.042618159    17.313704      754.34816     -65.748168      688.59999    
    643000   302.25312      0.042618159    8.0058411      749.89832     -65.355597      684.54273    
    644000   295.45056      0.042618159    16.572733      733.02099     -66.481392      666.5396     
    645000   308.43129      0.042618159    44.487399      765.22654     -66.731328      698.49522    
    646000   304.36106      0.042618159    24.725601      755.12818     -64.614769      690.51341    
    647000   302.63207      0.042618159   -2.8465365      750.83852     -68.837432      682.00108    
    648000   294.10662      0.042618159    30.906107      729.68662     -63.101465      666.58515    
    649000   316.50694      0.042618159    36.361586      785.26244     -73.683861      711.57858    
    650000   307.12092      0.042618159    9.2395955      761.97548     -72.769341      689.20614    
    651000   296.88666      0.042618159    3.0534164      736.58399     -74.044433      662.53955    
    652000   277.93536      0.042618159    11.165568      689.56528     -62.606977      626.9583     
    653000   304.79582      0.042618159    36.679461      756.20684     -67.291948      688.91489    
    654000   315.72439      0.042618159    16.418014      783.32091     -65.098935      718.22197    
    655000   282.12243      0.042618159    5.7232274      699.95353     -60.415126      639.53841    
    656000   288.69746      0.042618159    12.033426      716.26636     -60.212936      656.05343    
    657000   301.1235       0.042618159    19.66718       747.09571     -63.554343      683.54136    
    658000   300.18897      0.042618159    28.105451      744.77711     -66.351687      678.42542    
    659000   302.36386      0.042618159    20.529225      750.17308     -66.609956      683.56312    
    660000   293.14994      0.042618159    20.904456      727.31309     -65.649627      661.66346    
    661000   299.06697      0.042618159    22.86479       741.9934      -66.39299       675.60041    
    662000   314.69224      0.042618159    21.231045      780.76013     -73.47719       707.28294    
    663000   290.53703      0.042618159    19.887255      720.83038     -71.87235       648.95803    
    664000   296.94826      0.042618159    18.563989      736.73683     -68.132943      668.60388    
    665000   318.0033       0.042618159    22.465866      788.97495     -63.368691      725.60625    
    666000   308.57756      0.042618159    24.249062      765.58944     -62.213787      703.37565    
    667000   299.94785      0.042618159    22.54516       744.17887     -65.653515      678.52536    
    668000   295.11363      0.042618159    19.782267      732.18505     -66.741285      665.44377    
    669000   292.58508      0.042618159    15.036716      725.91166     -60.083866      665.82779    
    670000   323.25606      0.042618159    20.346407      802.00719     -67.887677      734.11952    
    671000   299.53029      0.042618159    24.345177      743.14291     -69.562372      673.58054    
    672000   287.23613      0.042618159    17.059201      712.64075     -67.206273      645.43448    
    673000   310.91385      0.042618159    9.8339953      771.38583     -64.473171      706.91266    
    674000   309.26529      0.042618159    25.717176      767.29571     -65.463271      701.83244    
    675000   297.5556       0.042618159    32.806829      738.24366     -67.667937      670.57572    
    676000   298.89566      0.042618159    22.068742      741.56838     -69.37135       672.19703    
    677000   305.393        0.042618159   -2.9011201      757.68844     -68.858669      688.82977    
    678000   305.13933      0.042618159    27.149281      757.05909     -66.206447      690.85264    
    679000   302.91843      0.042618159    41.246171      751.54897     -65.078595      686.47038    
    680000   305.15892      0.042618159    22.300362      757.10769     -65.792717      691.31497    
    681000   299.97401      0.042618159    13.338924      744.24379     -66.685377      677.55841    
    682000   298.86254      0.042618159    21.769091      741.4862      -62.21106       679.27514    
    683000   306.59651      0.042618159    23.648169      760.6744      -65.455503      695.2189     
    684000   308.9943       0.042618159    30.763305      766.62337     -62.806146      703.81723    
    685000   285.86705      0.042618159    28.532669      709.24404     -71.330658      637.91338    
    686000   290.00309      0.042618159    14.538319      719.50566     -76.293145      643.21252    
    687000   315.08823      0.042618159    18.061322      781.74258     -67.238412      714.50417    
    688000   309.56056      0.042618159    27.148567      768.02829     -75.957962      692.07033    
    689000   291.34118      0.042618159    20.064575      722.82551     -71.435326      651.39018    
    690000   298.00708      0.042618159    14.858433      739.36379     -73.723384      665.64041    
    691000   300.42812      0.042618159    23.144019      745.37045     -69.760814      675.60964    
    692000   297.47573      0.042618159    18.286746      738.0455      -74.757623      663.28787    
    693000   304.83338      0.042618159    22.639858      756.30003     -75.335961      680.96406    
    694000   285.64208      0.042618159    26.925859      708.68586     -71.406329      637.27954    
    695000   294.22738      0.042618159    16.739414      729.98623     -77.436392      652.54984    
    696000   313.04298      0.042618159    23.905899      776.66825     -75.838645      700.8296     
    697000   299.12707      0.042618159    22.011494      742.14251     -71.139224      671.00328    
    698000   282.52091      0.042618159    22.139808      700.94217     -69.46952       631.47265    
    699000   295.79681      0.042618159    25.080327      733.88003     -64.629455      669.25058    
    700000   313.35114      0.042618159    24.559004      777.43281     -69.898912      707.5339     
    701000   301.02382      0.042618159    22.989015      746.84839     -74.347742      672.50064    
    702000   294.68839      0.042618159    20.524642      731.13001     -76.342025      654.78798    
    703000   288.99957      0.042618159    24.596662      717.0159      -78.165372      638.85053    
    704000   306.70992      0.042618159    22.815381      760.95577     -75.511827      685.44394    
    705000   309.4414       0.042618159    18.581006      767.73263     -71.139285      696.59335    
    706000   295.32557      0.042618159    15.043433      732.71089     -72.145502      660.56539    
    707000   295.97437      0.042618159    33.649042      734.32058     -68.08064       666.23994    
    708000   308.85098      0.042618159    27.996605      766.26778     -76.943989      689.3238     
    709000   298.16727      0.042618159    19.215741      739.7612      -75.052347      664.70886    
    710000   293.16144      0.042618159    22.210814      727.34161     -78.584558      648.75705    
    711000   316.31058      0.042618159    25.511822      784.77528     -75.589868      709.18541    
    712000   316.16871      0.042618159    12.656424      784.42328     -75.398013      709.02527    
    713000   296.06197      0.042618159    20.072968      734.53792     -67.867616      666.6703     
    714000   300.17348      0.042618159    36.78559       744.73868     -71.995189      672.74349    
    715000   306.78072      0.042618159    32.511842      761.13142     -65.04461       696.08681    
    716000   317.47568      0.042618159    18.988658      787.66591     -71.58825       716.07766    
    717000   290.47591      0.042618159    9.6850547      720.67873     -76.492493      644.18624    
    718000   290.83399      0.042618159    12.540085      721.56714     -77.665491      643.90164    
    719000   296.07747      0.042618159    21.233301      734.57636     -75.38858       659.18778    
    720000   309.10628      0.042618159    25.573744      766.9012      -72.058325      694.84288    
    721000   294.64627      0.042618159    32.638918      731.02551     -80.106107      650.9194     
    722000   305.06208      0.042618159    18.268217      756.86744     -77.266368      679.60107    
    723000   298.51686      0.042618159    8.2465107      740.62855     -77.593277      663.03527    
    724000   294.83021      0.042618159    30.43669       731.48188     -80.164153      651.31773    
[...]
   7823000   310.07792      0.042618159    20.633872      769.31186     -70.510275      698.80159    
   7824000   301.73408      0.042618159    14.452093      748.61056     -78.662751      669.94781    
   7825000   303.21635      0.042618159    25.121167      752.28812     -73.157645      679.13048    
   7826000   297.27234      0.042618159    22.494875      737.54087     -73.986238      663.55463    
   7827000   303.0377       0.042618159    19.638467      751.84488     -75.654609      676.19027    
   7828000   312.75544      0.042618159    25.946535      775.95487     -71.101417      704.85345    
   7829000   307.29705      0.042618159    17.301336      762.41246     -77.561606      684.85085    
   7830000   293.93013      0.042618159    22.177189      729.24876     -75.785134      653.46363    
   7831000   294.75457      0.042618159    22.811767      731.2942      -78.547395      652.74681    
   7832000   304.51675      0.042618159    23.769927      755.51446     -78.170497      677.34396    
   7833000   299.51376      0.042618159    24.112805      743.1019      -74.492374      668.60952    
   7834000   291.32685      0.042618159    14.297874      722.78994     -75.395697      647.39424    
   7835000   295.44254      0.042618159    24.520639      733.00107     -73.599794      659.40128    
   7836000   301.38321      0.042618159    21.107392      747.74005     -74.111773      673.62828    
   7837000   308.23783      0.042618159    24.846517      764.74655     -68.270399      696.47615    
   7838000   291.46495      0.042618159    17.31246       723.13258     -71.928976      651.20361    
   7839000   288.10553      0.042618159    15.211125      714.79777     -83.784906      631.01287    
   7840000   305.60365      0.042618159    26.986017      758.21108     -77.788671      680.4224     
   7841000   311.85237      0.042618159    26.190667      773.71433     -79.172788      694.54154    
   7842000   306.05011      0.042618159    18.386158      759.31876     -78.485181      680.83358    
   7843000   292.64276      0.042618159    22.162259      726.05475     -71.25741       654.79734    
   7844000   287.87274      0.042618159    22.608655      714.22021     -71.637472      642.58273    
   7845000   295.67213      0.042618159    23.687289      733.5707      -73.750743      659.81996    
   7846000   314.74095      0.042618159    19.233705      780.88097     -79.125593      701.75538    
   7847000   301.40422      0.042618159    19.602617      747.79217     -72.716011      675.07616    
   7848000   280.24501      0.042618159    21.525668      695.2956      -73.230846      622.06476    
   7849000   299.66415      0.042618159    19.742438      743.47502     -72.680455      670.79456    
   7850000   297.23474      0.042618159    20.538709      737.44758     -66.513839      670.93374    
   7851000   295.02827      0.042618159    15.728411      731.97328     -68.997267      662.97601    
   7852000   306.63256      0.042618159    27.137748      760.76383     -66.881581      693.88225    
   7853000   298.12049      0.042618159    25.305666      739.64515     -66.563489      673.08167    
   7854000   297.72247      0.042618159    11.308133      738.65766     -63.252309      675.40535    
   7855000   308.15325      0.042618159    20.475304      764.53672     -61.789757      702.74696    
   7856000   309.43532      0.042618159    25.919973      767.71755     -69.092706      698.62484    
   7857000   283.09367      0.042618159    24.663512      702.36321     -69.176229      633.18698    
   7858000   295.53191      0.042618159    19.904997      733.22282     -74.014604      659.20822    
   7859000   294.13483      0.042618159    3.3412813      729.75663     -68.673508      661.08312    
   7860000   308.28119      0.042618159    19.066478      764.85412     -64.847629      700.00649    
   7861000   300.03252      0.042618159    30.068279      744.38894     -63.918718      680.47023    
   7862000   299.8566       0.042618159    29.407544      743.95248     -66.342338      677.61014    
   7863000   305.17599      0.042618159    19.664471      757.15004     -64.022041      693.128      
   7864000   317.18501      0.042618159    12.444607      786.94475     -69.095556      717.8492     
   7865000   292.77699      0.042618159    29.127289      726.38779     -66.187712      660.20008    
   7866000   298.95571      0.042618159    24.913463      741.71736     -70.80779       670.90957    
   7867000   299.06158      0.042618159    13.679501      741.98003     -72.403289      669.57674    
   7868000   304.74947      0.042618159    8.1212785      756.09182     -69.055852      687.03597    
   7869000   291.05673      0.042618159    42.1977        722.11977     -68.686673      653.4331     
   7870000   297.74667      0.042618159    17.688737      738.71769     -69.555892      669.16179    
   7871000   310.56164      0.042618159    17.314688      770.51199     -64.154108      706.35788    
   7872000   301.75836      0.042618159    27.201069      748.67082     -62.296375      686.37444    
   7873000   298.03121      0.042618159    19.002288      739.42365     -59.246125      680.17752    
   7874000   300.09345      0.042618159    0.98795556     744.54013     -59.935077      684.60505    
   7875000   301.67427      0.042618159    24.622238      748.46217     -56.184281      692.27789    
   7876000   289.21093      0.042618159    34.504657      717.54028     -64.228745      653.31154    
   7877000   298.33013      0.042618159    18.906341      740.16527     -57.693414      682.47186    
   7878000   307.78434      0.042618159    31.103509      763.62144     -64.525322      699.09611    
   7879000   290.04088      0.042618159    19.992793      719.59941     -65.824032      653.77538    
   7880000   297.53402      0.042618159    19.732508      738.19011     -65.244503      672.9456     
   7881000   305.36875      0.042618159    20.446145      757.62828     -74.179314      683.44897    
   7882000   319.18717      0.042618159    24.596733      791.91217     -74.117982      717.79419    
   7883000   306.8392       0.042618159    28.741383      761.27651     -70.405924      690.87059    
   7884000   286.07764      0.042618159    22.343013      709.76651     -73.514924      636.25159    
   7885000   289.05929      0.042618159    14.158574      717.16406     -75.745179      641.41888    
   7886000   317.69904      0.042618159    18.894115      788.22008     -77.023155      711.19692    
   7887000   311.89277      0.042618159    24.042227      773.81455     -73.29679       700.51776    
   7888000   293.77594      0.042618159    22.023404      728.8662      -73.407912      655.45828    
   7889000   284.96252      0.042618159    25.521891      706.99986     -80.386315      626.61354    
   7890000   303.00441      0.042618159    19.512348      751.7623      -77.276685      674.48561    
   7891000   303.69375      0.042618159    25.293164      753.47258     -76.220661      677.25192    
   7892000   306.11955      0.042618159    46.266588      759.49104     -73.519341      685.9717     
   7893000   294.17407      0.042618159    17.834942      729.85397     -71.854239      657.99973    
   7894000   302.21454      0.042618159    13.605751      749.80259     -63.995846      685.80675    
   7895000   322.95273      0.042618159    22.959594      801.25464     -67.133599      734.12104    
   7896000   311.05308      0.042618159    30.272375      771.73127     -72.081798      699.64947    
   7897000   293.66666      0.042618159    30.82693       728.59509     -64.352579      664.24251    
   7898000   294.80623      0.042618159    13.239876      731.42239     -69.526289      661.8961     
   7899000   321.86091      0.042618159    24.60166       798.54579     -70.925351      727.62044    
   7900000   301.07231      0.042618159    33.186797      746.96871     -69.745464      677.22324    
   7901000   295.81782      0.042618159    22.124005      733.93215     -72.996672      660.93548    
   7902000   299.11777      0.042618159    14.595343      742.11944     -72.903988      669.21545    
   7903000   310.44948      0.042618159    21.030592      770.23373     -74.904104      695.32963    
   7904000   295.16434      0.042618159    35.838612      732.31087     -70.661852      661.64902    
   7905000   291.10844      0.042618159    18.609423      722.24806     -75.032709      647.21535    
   7906000   305.62715      0.042618159    27.56539       758.26937     -79.924888      678.34448    
   7907000   304.73347      0.042618159    25.074949      756.05213     -83.536731      672.5154     
   7908000   296.89153      0.042618159    19.896274      736.59606     -77.372233      659.22382    
   7909000   279.92568      0.042618159    19.856676      694.50332     -76.073138      618.43018    
   7910000   304.15576      0.042618159    25.610018      754.61882     -75.057931      679.56088    
   7911000   312.64121      0.042618159    23.126971      775.67145     -77.926584      697.74487    
   7912000   285.26378      0.042618159    21.380855      707.7473      -73.692808      634.05449    
   7913000   285.7115       0.042618159    20.302883      708.85812     -76.280364      632.57775    
   7914000   302.96219      0.042618159    21.236435      751.65754     -78.138267      673.51928    
   7915000   312.03854      0.042618159    20.888909      774.17623     -79.268872      694.90736    
   7916000   297.81544      0.042618159    23.815781      738.88831     -71.808223      667.08009    
   7917000   293.86095      0.042618159    20.744464      729.07713     -76.016677      653.06045    
   7918000   300.28214      0.042618159    19.947311      745.00826     -80.558864      664.4494     
   7919000   307.59324      0.042618159    17.674158      763.1473      -75.4985        687.6488     
   7920000   294.69329      0.042618159    21.187317      731.14218     -78.364324      652.77786    
   7921000   296.66051      0.042618159    23.372829      736.02291     -76.865456      659.15746    
   7922000   310.09947      0.042618159    13.562352      769.36533     -70.9145        698.45083    
   7923000   288.47217      0.042618159    16.557396      715.70741     -74.60241       641.105      
   7924000   299.62003      0.042618159    22.278523      743.36556     -75.844148      667.52141    
   7925000   312.93038      0.042618159    41.061336      776.3889      -73.839597      702.54931    
   7926000   301.23694      0.042618159    23.40101       747.37716     -71.454651      675.92251    
   7927000   302.67785      0.042618159    14.897881      750.95208     -71.923944      679.02814    
   7928000   288.3982       0.042618159    30.081782      715.52388     -69.189892      646.33399    
   7929000   317.59584      0.042618159    26.382942      787.96403     -69.015782      718.94825    
   7930000   309.86339      0.042618159    7.3987014      768.77962     -68.680015      700.0996     
   7931000   292.80799      0.042618159    11.571771      726.46469     -66.203652      660.26104    
   7932000   295.19787      0.042618159    16.926027      732.39406     -68.668756      663.72531    
   7933000   307.23767      0.042618159    29.049802      762.26514     -71.038616      691.22652    
   7934000   307.35724      0.042618159    20.31182       762.56179     -74.736841      687.82495    
   7935000   290.25822      0.042618159    14.83905       720.13865     -73.407462      646.73119    
   7936000   293.82194      0.042618159    25.406879      728.98032     -74.742433      654.23789    
   7937000   300.27314      0.042618159    23.859182      744.98593     -72.820192      672.16574    
   7938000   308.47827      0.042618159    31.08697       765.34309     -72.408022      692.93507    
   7939000   311.31437      0.042618159    27.920618      772.37953     -66.311864      706.06766    
   7940000   301.02443      0.042618159    19.673887      746.8499      -70.128816      676.72108    
   7941000   303.71674      0.042618159    28.400404      753.52961     -65.532421      687.99719    
   7942000   314.85961      0.042618159    19.978892      781.17536     -72.394805      708.78056    
   7943000   295.18539      0.042618159    19.328456      732.36309     -67.386056      664.97704    
   7944000   294.70005      0.042618159    19.785589      731.15895     -71.376912      659.78204    
   7945000   295.25921      0.042618159    20.107718      732.54624     -73.061139      659.4851     
   7946000   291.97816      0.042618159    22.337213      724.40587     -75.147946      649.25792    
   7947000   302.29521      0.042618159    22.992844      750.00276     -68.060402      681.94236    
   7948000   296.9866       0.042618159    22.234159      736.83194     -70.890188      665.94176    
   7949000   302.61411      0.042618159    23.336192      750.79395     -71.654759      679.13919    
   7950000   303.16293      0.042618159    28.031822      752.15559     -76.706247      675.44934    
   7951000   297.38252      0.042618159    15.877547      737.81422     -71.505063      666.30916    
   7952000   302.21957      0.042618159    23.955944      749.81509     -75.571149      674.24395    
   7953000   310.02458      0.042618159    19.562554      769.17954     -76.020311      693.15923    
   7954000   293.95691      0.042618159    21.182406      729.31521     -67.524546      661.79066    
   7955000   302.46459      0.042618159    21.419701      750.42297     -66.495364      683.92761    
   7956000   293.26701      0.042618159    14.626427      727.60353     -68.125504      659.47802    
   7957000   299.91902      0.042618159    20.076363      744.10735     -66.751812      677.35554    
   7958000   302.71685      0.042618159    24.920269      751.04885     -72.54027       678.50858    
   7959000   313.29717      0.042618159    27.371482      777.29892     -66.175255      711.12366    
   7960000   296.27162      0.042618159    15.036833      735.05805     -76.282544      658.77551    
   7961000   294.0962       0.042618159    16.199062      729.66078     -72.889391      656.77139    
   7962000   293.49773      0.042618159    25.029236      728.17595     -80.484648      647.69131    
   7963000   296.64605      0.042618159    27.39594       735.98702     -75.94676       660.04026    
   7964000   308.83782      0.042618159    13.660934      766.23514     -74.761884      691.47325    
   7965000   308.60366      0.042618159    20.696726      765.65418     -75.188563      690.46562    
   7966000   304.93768      0.042618159    32.623444      756.55878     -72.350292      684.20849    
   7967000   304.28339      0.042618159    20.313941      754.93549     -73.237238      681.69825    
   7968000   292.50905      0.042618159    21.191002      725.72301     -75.645368      650.07764    
   7969000   292.78018      0.042618159    21.414931      726.3957      -75.084043      651.31165    
   7970000   298.39671      0.042618159    19.407875      740.33047     -79.080127      661.25034    
   7971000   299.99977      0.042618159    23.122151      744.30769     -72.768383      671.53931    
   7972000   283.56178      0.042618159    20.79943       703.52459     -75.610194      627.9144     
   7973000   295.65054      0.042618159    23.258436      733.51713     -68.033829      665.48331    
   7974000   310.90677      0.042618159    23.04471       771.36826     -64.025121      707.34313    
   7975000   313.57689      0.042618159    23.305999      777.9929      -67.67014       710.32276    
   7976000   307.26663      0.042618159    23.117931      762.33699     -72.906669      689.43032    
   7977000   299.82037      0.042618159    21.028101      743.8626      -63.894311      679.96829    
   7978000   307.12365      0.042618159    10.444077      761.98225     -67.07869       694.90356    
   7979000   301.32534      0.042618159    16.79094       747.59648     -65.436409      682.16007    
   7980000   295.60983      0.042618159    30.187829      733.41614     -64.188478      669.22766    
   7981000   300.96463      0.042618159    25.626024      746.70155     -62.115787      684.58576    
   7982000   302.02419      0.042618159    21.758524      749.33034     -70.4782        678.85214    
   7983000   297.07457      0.042618159    20.174205      737.05019     -72.349835      664.70035    
   7984000   284.84763      0.042618159    18.822266      706.71482     -77.141922      629.5729     
   7985000   292.54926      0.042618159    25.819341      725.82278     -70.13253       655.69025    
   7986000   307.8227       0.042618159    20.191436      763.7166      -72.164036      691.55257    
   7987000   303.77969      0.042618159    19.193101      753.68577     -70.861754      682.82402    
   7988000   299.53833      0.042618159    20.561372      743.16285     -63.448654      679.71419    
   7989000   298.39638      0.042618159    19.069236      740.32964     -61.536139      678.7935     
   7990000   313.93503      0.042618159    27.812057      778.88147     -53.228846      725.65263    
   7991000   301.80544      0.042618159    20.103744      748.78763     -64.006913      684.78071    
   7992000   296.54132      0.042618159    25.624045      735.7272      -57.115505      678.61169    
   7993000   303.31573      0.042618159    26.437478      752.53468     -63.340212      689.19447    
   7994000   307.56997      0.042618159    20.055823      763.08956     -66.434917      696.65464    
   7995000   294.84723      0.042618159    23.576764      731.52411     -66.488389      665.03572    
   7996000   278.60671      0.042618159    29.524744      691.23093     -66.762134      624.4688     
   7997000   298.21877      0.042618159    22.87107       739.88898     -64.53935       675.34963    
   7998000   317.64564      0.042618159    6.0229926      788.08758     -68.88534       719.20224    
   7999000   289.4109       0.042618159    14.807625      718.03641     -59.260827      658.77558    
   8000000   293.18795      0.042618159    24.352943      727.40737     -64.477438      662.92994    
Loop time of 14378 on 1 procs for 8000000 steps with 1500 atoms

Performance: 12.018 ns/day, 1.997 hours/ns, 556.406 timesteps/s, 834.609 katom-step/s
99.6% CPU use with 1 MPI tasks x 1 OpenMP threads

MPI task timing breakdown:
Section |  min time  |  avg time  |  max time  |%varavg| %total
---------------------------------------------------------------
Pair    | 1256.8     | 1256.8     | 1256.8     |   0.0 |  8.74
Bond    | 358.37     | 358.37     | 358.37     |   0.0 |  2.49
Kspace  | 11100      | 11100      | 11100      |   0.0 | 77.20
Neigh   | 0.066758   | 0.066758   | 0.066758   |   0.0 |  0.00
Comm    | 58.34      | 58.34      | 58.34      |   0.0 |  0.41
Output  | 0.2673     | 0.2673     | 0.2673     |   0.0 |  0.00
Modify  | 1570.8     | 1570.8     | 1570.8     |   0.0 | 10.93
Other   |            | 33.42      |            |       |  0.23

Nlocal:           1500 ave        1500 max        1500 min
Histogram: 1 0 0 0 0 0 0 0 0 0
Nghost:           1748 ave        1748 max        1748 min
Histogram: 1 0 0 0 0 0 0 0 0 0
Neighs:              0 ave           0 max           0 min
Histogram: 1 0 0 0 0 0 0 0 0 0

Total # of neighbors = 0
Ave neighs/atom = 0
Ave special neighs/atom = 2
Neighbor list builds = 29640
Dangerous builds = 0
write_data	last_conf.data pair ij
System init for write_data ...
PPPM initialization ...
  using 12-bit tables for long-range coulomb (src/kspace.cpp:342)
  G vector (1/distance) = 0.17959966
  grid = 24 24 24
  stencil order = 5
  estimated absolute RMS force accuracy = 0.02669929
  estimated relative force accuracy = 8.0404118e-05
  using double precision FFTW3
  3d grid and FFT values/proc = 24389 13824
Generated 1 of 1 mixed pair_coeff terms from arithmetic mixing rule
Total wall time: 3:59:38
