LAMMPS data file via write_data, version 29 Aug 2024, timestep = 0, units = real

1500 atoms
2 atom types
1000 bonds
1 bond types
500 angles
1 angle types

0 129 xlo xhi
0 129 ylo yhi
0 129 zlo zhi

Masses

1 12.0107
2 15.9994

PairIJ Coeffs # lj/cut/coul/long/gpu

1 1 0.053649 2.8 12
1 2 0.0917684 2.925 12
2 2 0.156973 3.05 12

Bond Coeffs # harmonic

1 0 1.16

Angle Coeffs # harmonic

1 0 180

Atoms # full

1 1 1 0.7 9.504290610786663 36.612295491440356 12.850324638118186 0 0 0
2 1 2 -0.35 8.496629866544447 36.849981517073914 12.327137121321629 0 0 0
3 1 2 -0.35 10.511951355028879 36.3746094658068 13.373512154914744 0 0 0
4 2 1 0.7 29.406192852373326 30.883269838468763 88.11617514449925 0 0 0
5 2 2 -0.35 29.75351270850291 31.383836929280974 87.1290573677705 0 0 0
6 2 2 -0.35 29.058872996243743 30.382702747656552 89.103292921228 0 0 0
7 3 1 0.7 48.555653598883964 20.870036442703583 11.702492519143266 0 0 0
8 3 2 -0.35 48.09304474393099 19.806273227867074 11.701559738467234 0 0 0
9 3 2 -0.35 49.01826245383694 21.933799657540092 11.7034252998193 0 0 0
10 4 1 0.7 87.79176924088586 14.265631568741814 80.4697758436528 0 0 0
11 4 2 -0.35 86.70670992312685 14.464675506892975 80.82842300679457 0 0 0
12 4 2 -0.35 88.87682855864486 14.066587630590652 80.11112868051103 0 0 0
13 5 1 0.7 19.522604272478542 69.41000754684676 26.996839853467808 0 0 0
14 5 2 -0.35 19.34994549743412 69.694985996367 28.107954712836182 0 0 0
15 5 2 -0.35 19.695263047522964 69.12502909732652 25.885724994099434 0 0 0
16 6 1 0.7 42.887417233496635 85.82144337791085 51.99885254772327 0 0 0
17 6 2 -0.35 41.79994304910722 85.9950030231011 51.6343296433016 0 0 0
18 6 2 -0.35 43.97489141788605 85.6478837327206 52.363375452144936 0 0 0
19 7 1 0.7 98.71476958492526 30.13241383905169 110.47939294179872 0 0 0
20 7 2 -0.35 97.6933969853601 30.395089955299014 109.99627880330686 0 0 0
21 7 2 -0.35 99.73614218449043 29.869737722804366 110.96250708029058 0 0 0
22 8 1 0.7 1.1571728112907953 98.60343936439764 94.00539743108926 0 0 0
23 8 2 -0.35 0.6822794115610918 99.62087164622103 94.29678687976033 0 0 0
24 8 2 -0.35 1.6320662110204989 97.58600708257426 93.7140079824182 0 0 0
25 9 1 0.7 85.71462431723002 62.69089968488128 102.9510037996578 0 0 0
26 9 2 -0.35 85.37386731418124 63.402918260035 102.10099543881111 0 0 0
27 9 2 -0.35 86.0553813202788 61.97888110972756 103.80101216050448 0 0 0
28 10 1 0.7 20.520860848725242 77.10828452515803 24.93801433077921 0 0 0
29 10 2 -0.35 20.527440158699587 76.14874255094077 25.589808709702126 0 0 0
30 10 2 -0.35 20.514281538750897 78.06782649937529 24.286219951856296 0 0 0
31 11 1 0.7 12.20685740616492 50.65242541378942 44.3139295588778 0 0 0
32 11 2 -0.35 11.812446434612374 50.62324733494176 45.40442881391365 0 0 0
33 11 2 -0.35 12.601268377717465 50.68160349263709 43.22343030384196 0 0 0
34 12 1 0.7 67.21409605919108 14.312466824572752 93.62992059422187 0 0 0
35 12 2 -0.35 66.29475728056431 14.99587511585434 93.81259330023082 0 0 0
36 12 2 -0.35 68.13343483781784 13.629058533291165 93.44724788821293 0 0 0
37 13 1 0.7 96.07542708705898 46.703052200238716 102.19832941200507 0 0 0
38 13 2 -0.35 96.16039726388112 45.552209642230245 102.08025538553296 0 0 0
39 13 2 -0.35 95.99045691023684 47.853894758247186 102.31640343847717 0 0 0
40 14 1 0.7 12.322427569107353 58.04015398725874 111.86806385771746 0 0 0
41 14 2 -0.35 11.621408163598295 57.699322041514236 112.72713625155848 0 0 0
42 14 2 -0.35 13.02344697461641 58.380985933003245 111.00899146387644 0 0 0
43 15 1 0.7 120.54925665750599 126.35664270322614 78.09391312165833 0 0 0
44 15 2 -0.35 119.7626195802922 126.36275767138635 77.24140815632562 0 0 0
45 15 2 -0.35 121.33589373471979 126.35052773506594 78.94641808699105 0 0 0
46 16 1 0.7 78.39783571166817 26.424806006916242 103.7145582412903 0 0 0
47 16 2 -0.35 77.24830840804727 26.274630683520694 103.67413114056446 0 0 0
48 16 2 -0.35 79.54736301528906 26.57498133031179 103.75498534201616 0 0 0
49 17 1 0.7 82.58036136607657 17.133479648797532 34.392457340095405 0 0 0
50 17 2 -0.35 81.60863489609928 17.705168418641474 34.66544015636739 0 0 0
51 17 2 -0.35 83.55208783605387 16.56179087895359 34.11947452382342 0 0 0
52 18 1 0.7 114.03051498347452 86.86532725620332 52.55519500912875 0 0 0
53 18 2 -0.35 113.21487644658605 87.48711270964826 52.01323871289564 0 0 0
54 18 2 -0.35 114.84615352036299 86.24354180275837 53.09715130536186 0 0 0
55 19 1 0.7 32.16251842685161 45.44720009502359 22.09199706143327 0 0 0
56 19 2 -0.35 31.982777788343626 45.7588186967782 20.98918830652186 0 0 0
57 19 2 -0.35 32.3422590653596 45.13558149326898 23.194805816344676 0 0 0
58 20 1 0.7 38.19461150895553 32.83563101563399 6.450479760510139 0 0 0
59 20 2 -0.35 39.11507063538641 32.77093913920445 7.15345199160759 0 0 0
60 20 2 -0.35 37.274152382524655 32.900322892063535 5.747507529412688 0 0 0
61 21 1 0.7 53.21333489390711 128.51956189680823 52.27679965611398 0 0 0
62 21 2 -0.35 54.022971565036165 127.79109141177446 52.67607301259764 0 0 0
63 21 2 -0.35 52.403698222778054 0.24803238184199472 51.87752629963032 0 1 0
64 22 1 0.7 126.17182030769617 67.78391144926842 45.19972785431879 0 0 0
65 22 2 -0.35 125.24651529516636 67.09953804733496 45.054663453057735 0 0 0
66 22 2 -0.35 127.09712532022597 68.46828485120187 45.34479225557984 0 0 0
67 23 1 0.7 119.8260475359047 97.38093595038211 58.39051807224309 0 0 0
68 23 2 -0.35 120.58868628115117 97.98064749076728 57.75464999427586 0 0 0
69 23 2 -0.35 119.06340879065824 96.78122440999694 59.02638615021032 0 0 0
70 24 1 0.7 66.43724018961062 115.6958667858019 83.43306897228261 0 0 0
71 24 2 -0.35 65.61780247445068 116.4357436001252 83.78902420907546 0 0 0
72 24 2 -0.35 67.25667790477056 114.95598997147859 83.07711373548976 0 0 0
73 25 1 0.7 29.59021715381658 27.77970419534468 42.48841115808506 0 0 0
74 25 2 -0.35 28.54639648688839 27.296337936712558 42.338759979307305 0 0 0
75 25 2 -0.35 30.634037820744773 28.263070453976805 42.63806233686281 0 0 0
76 26 1 0.7 87.72633393561763 75.49445592541922 120.3207385206226 0 0 0
77 26 2 -0.35 86.64526779220024 75.79136425044119 120.02284350540869 0 0 0
78 26 2 -0.35 88.80740007903502 75.19754760039724 120.61863353583651 0 0 0
79 27 1 0.7 26.65231610399313 57.47675981255097 59.90216954420421 0 0 0
80 27 2 -0.35 25.805631482929044 57.402523240077954 59.112730449808055 0 0 0
81 27 2 -0.35 27.499000725057215 57.55099638502399 60.69160863860037 0 0 0
82 28 1 0.7 59.76352944027797 51.63930275181276 118.76134971704397 0 0 0
83 28 2 -0.35 58.93323271097419 52.19385506422908 119.35184025388698 0 0 0
84 28 2 -0.35 60.59382616958175 51.08475043939643 118.17085918020096 0 0 0
85 29 1 0.7 5.0046943579822285 5.89807460731737 56.93992518304844 0 0 0
86 29 2 -0.35 3.845321683140684 5.922868431494058 56.96891254431946 0 0 0
87 29 2 -0.35 6.164067032823773 5.873280783140682 56.910937821777416 0 0 0
88 30 1 0.7 67.32255149508013 31.122977811900423 117.88808461040634 0 0 0
89 30 2 -0.35 66.40272600574382 31.172012123928894 117.18301957410748 0 0 0
90 30 2 -0.35 68.24237698441645 31.07394349987195 118.5931496467052 0 0 0
91 31 1 0.7 34.03804709950371 91.45760135886148 92.90603838484084 0 0 0
92 31 2 -0.35 34.35022724113766 90.47205934648353 92.37987253550487 0 0 0
93 31 2 -0.35 33.725866957869755 92.44314337123943 93.43220423417681 0 0 0
94 32 1 0.7 55.78713402002451 42.36147455189446 18.302793690144455 0 0 0
95 32 2 -0.35 54.995762745560405 41.51401980371816 18.26885321656911 0 0 0
96 32 2 -0.35 56.578505294488615 43.20892930007076 18.3367341637198 0 0 0
97 33 1 0.7 79.05355025783813 82.019183485312 2.4168376389037993 0 0 0
98 33 2 -0.35 77.91241874574645 81.85581772368627 2.5461840731020677 0 0 0
99 33 2 -0.35 80.1946817699298 82.18254924693773 2.287491204705531 0 0 0
100 34 1 0.7 113.79019705615481 46.84192279392943 114.19639757191595 0 0 0
101 34 2 -0.35 112.79157943287682 46.7895151750756 113.60850618401791 0 0 0
102 34 2 -0.35 114.7888146794328 46.894330412783255 114.78428895981399 0 0 0
103 35 1 0.7 36.85399119130056 76.02995218850205 90.40643215384634 0 0 0
104 35 2 -0.35 35.7077796305747 76.20815427916635 90.39986915595937 0 0 0
105 35 2 -0.35 38.00020275202642 75.85175009783775 90.41299515173331 0 0 0
106 36 1 0.7 98.90520969541053 5.859350765058468 51.108308337679276 0 0 0
107 36 2 -0.35 97.92457689815404 5.304502571157227 51.38417569469972 0 0 0
108 36 2 -0.35 99.88584249266702 6.41419895895971 50.83244098065883 0 0 0
109 37 1 0.7 95.33823137559845 40.654729683257045 100.04178650120356 0 0 0
110 37 2 -0.35 94.1790247122945 40.65215067898266 99.99896990992552 0 0 0
111 37 2 -0.35 96.4974380389024 40.65730868753143 100.0846030924816 0 0 0
112 38 1 0.7 16.305725728303997 54.332315605288514 101.2283780841289 0 0 0
113 38 2 -0.35 16.3487138372817 54.9415977899945 100.24221012587513 0 0 0
114 38 2 -0.35 16.262737619326295 53.723033420582524 102.21454604238268 0 0 0
115 39 1 0.7 93.35045995439889 43.18045358228518 108.88335746707551 0 0 0
116 39 2 -0.35 92.56187308999547 42.4658825903913 108.4217092732805 0 0 0
117 39 2 -0.35 94.1390468188023 43.89502457417906 109.34500566087053 0 0 0
118 40 1 0.7 8.588949138107221 3.4681641680505892 110.4351724262513 0 0 0
119 40 2 -0.35 8.337270878615856 3.508745058962439 111.56681337858211 0 0 0
120 40 2 -0.35 8.840627397598587 3.4275832771387393 109.30353147392049 0 0 0
121 41 1 0.7 31.942968005753574 96.46327270030196 115.22427397511167 0 0 0
122 41 2 -0.35 31.42193557501351 97.21599397430502 114.5118584434307 0 0 0
123 41 2 -0.35 32.464000436493635 95.71055142629889 115.93668950679265 0 0 0
124 42 1 0.7 26.37269970186646 1.96388926960709 112.08695428636248 0 0 0
125 42 2 -0.35 25.23007937172475 1.7974087865316772 112.1978733104378 0 0 0
126 42 2 -0.35 27.51532003200817 2.1303697526825025 111.97603526228717 0 0 0
127 43 1 0.7 58.44069089435073 6.6918613527397905 111.11375549766876 0 0 0
128 43 2 -0.35 59.545750466358236 6.749627659907784 110.76575205505539 0 0 0
129 43 2 -0.35 57.335631322343225 6.634095045571797 111.46175894028214 0 0 0
130 44 1 0.7 84.88864931878105 112.52910075314766 7.596358152849766 0 0 0
131 44 2 -0.35 84.26787046312664 113.41142255986327 7.1700462461822285 0 0 0
132 44 2 -0.35 85.50942817443546 111.64677894643205 8.022670059517303 0 0 0
133 45 1 0.7 90.9914749460255 127.71941785082194 20.2558187643326 0 0 0
134 45 2 -0.35 89.86951035662467 127.48742453342958 20.43740775302936 0 0 0
135 45 2 -0.35 92.11343953542634 127.9514111682143 20.07422977563584 0 0 0
136 46 1 0.7 8.54597213796618 55.153722797592046 103.61905912944071 0 0 0
137 46 2 -0.35 8.238223265517934 54.810993653262244 104.68368458711764 0 0 0
138 46 2 -0.35 8.853721010414425 55.49645194192185 102.55443367176379 0 0 0
139 47 1 0.7 25.52678851016182 103.73449028969486 30.578298901477034 0 0 0
140 47 2 -0.35 24.803178572407244 103.8827500497587 31.472730397751977 0 0 0
141 47 2 -0.35 26.250398447916393 103.58623052963102 29.68386740520209 0 0 0
142 48 1 0.7 122.46963712455222 23.19115234920343 64.6975330620527 0 0 0
143 48 2 -0.35 121.45958877725444 22.626174814654842 64.77629042092425 0 0 0
144 48 2 -0.35 123.47968547185 23.75612988375202 64.61877570318114 0 0 0
145 49 1 0.7 30.43817391965453 89.38906763372434 28.059720004936548 0 0 0
146 49 2 -0.35 30.618345690870424 88.4983332171805 27.338796755178823 0 0 0
147 49 2 -0.35 30.25800214843864 90.27980205026817 28.780643254694272 0 0 0
148 50 1 0.7 104.71412296859273 112.26473313815181 79.3698529174411 0 0 0
149 50 2 -0.35 104.0443308532017 111.47211312290065 79.88824662263363 0 0 0
150 50 2 -0.35 105.38391508398377 113.05735315340297 78.85145921224856 0 0 0
151 51 1 0.7 109.11798343254159 81.94755072656439 88.4850613677339 0 0 0
152 51 2 -0.35 108.2940736658805 82.50248935261692 89.08407373631691 0 0 0
153 51 2 -0.35 109.94189319920268 81.39261210051185 87.8860489991509 0 0 0
154 52 1 0.7 56.42640750362836 79.63091348187574 110.76288988569885 0 0 0
155 52 2 -0.35 56.37526104432421 78.47207333177185 110.77146579427266 0 0 0
156 52 2 -0.35 56.47755396293251 80.78975363197962 110.75431397712505 0 0 0
157 53 1 0.7 121.89030894073207 90.4223668838024 108.72021606691192 0 0 0
158 53 2 -0.35 120.85063757931225 90.34452219132622 108.21166551475731 0 0 0
159 53 2 -0.35 122.92998030215189 90.50021157627857 109.22876661906652 0 0 0
160 54 1 0.7 104.67143658859256 39.834744475239305 121.55039534696863 0 0 0
161 54 2 -0.35 103.95122631339777 40.70421287081386 121.8167069475437 0 0 0
162 54 2 -0.35 105.39164686378734 38.96527607966475 121.28408374639356 0 0 0
163 55 1 0.7 53.49459650157699 82.6834020045043 71.93748970373416 0 0 0
164 55 2 -0.35 52.67135274003335 82.51648022401908 72.73749397139723 0 0 0
165 55 2 -0.35 54.31784026312064 82.85032378498953 71.13748543607109 0 0 0
166 56 1 0.7 65.38945066015677 49.49724525469227 108.20099561298312 0 0 0
167 56 2 -0.35 64.25039467459163 49.44236687857111 107.98853426218596 0 0 0
168 56 2 -0.35 66.5285066457219 49.552123630813426 108.41345696378028 0 0 0
169 57 1 0.7 21.133267407367597 49.825315627188104 75.0797461504488 0 0 0
170 57 2 -0.35 20.02492533238281 49.89307111771357 74.74420622984013 0 0 0
171 57 2 -0.35 22.241609482352384 49.75756013666264 75.41528607105747 0 0 0
172 58 1 0.7 116.29355059298386 66.7048162797954 97.84721452130341 0 0 0
173 58 2 -0.35 116.66659838497428 65.696161623938 98.28201462492378 0 0 0
174 58 2 -0.35 115.92050280099345 67.7134709356528 97.41241441768305 0 0 0
175 59 1 0.7 26.134459546364127 125.86159574187435 13.839633682202377 0 0 0
176 59 2 -0.35 25.87842248914326 124.80483130176145 13.435537229059623 0 0 0
177 59 2 -0.35 26.390496603584992 126.91836018198725 14.243730135345132 0 0 0
178 60 1 0.7 15.723296775353745 69.448903370392 35.718946178312855 0 0 0
179 60 2 -0.35 14.703489047593758 69.18363567526698 35.23394592230872 0 0 0
180 60 2 -0.35 16.74310450311373 69.71417106551702 36.20394643431699 0 0 0
181 61 1 0.7 91.32841890413707 114.73652183159092 84.72242354868094 0 0 0
182 61 2 -0.35 90.25804349783739 115.0312106926812 85.05866002013833 0 0 0
183 61 2 -0.35 92.39879431043674 114.44183297050064 84.38618707722354 0 0 0
184 62 1 0.7 27.772582680346716 51.79710858724877 62.00402589002812 0 0 0
185 62 2 -0.35 28.336635475849473 52.60821970467778 62.61192653903961 0 0 0
186 62 2 -0.35 27.20852988484396 50.985997469819765 61.39612524101663 0 0 0
187 63 1 0.7 39.66313370254968 75.28813875247171 6.7480127922017195 0 0 0
188 63 2 -0.35 38.59926490528456 75.7133281627145 6.566361622034672 0 0 0
189 63 2 -0.35 40.7270024998148 74.86294934222892 6.929663962368767 0 0 0
190 64 1 0.7 22.850998534285928 23.73236574359814 1.8710526539343655 0 0 0
191 64 2 -0.35 22.89124586395799 24.63950515661664 1.1491951625950274 0 0 0
192 64 2 -0.35 22.810751204613865 22.825226330579643 2.5929101452737036 0 0 0
193 65 1 0.7 99.78195467488 35.312220708146796 92.4934418231684 0 0 0
194 65 2 -0.35 100.05196292716194 34.698414385471054 93.43998149055848 0 0 0
195 65 2 -0.35 99.51194642259806 35.92602703082254 91.54690215577831 0 0 0
196 66 1 0.7 87.27672199126181 0.8665071371321135 115.38545377942988 0 0 0
197 66 2 -0.35 86.53391458869058 1.0933346966635396 114.52383529023504 0 0 0
198 66 2 -0.35 88.01952939383304 0.6396795776006874 116.24707226862472 0 0 0
199 67 1 0.7 26.321670877897027 47.32244481533879 63.330011399150834 0 0 0
200 67 2 -0.35 25.92544537658644 46.33109997507937 62.876314628386275 0 0 0
201 67 2 -0.35 26.717896379207616 48.313789655598214 63.78370816991539 0 0 0
202 68 1 0.7 8.501585528022416 83.1479694727566 10.922928620093934 0 0 0
203 68 2 -0.35 7.8468875693706 83.81367250260811 10.234589997769376 0 0 0
204 68 2 -0.35 9.156283486674232 82.48226644290509 11.611267242418492 0 0 0
205 69 1 0.7 14.661317918757591 22.770260558822315 85.76921212662441 0 0 0
206 69 2 -0.35 13.558949149659485 22.82647070987907 86.12589618266743 0 0 0
207 69 2 -0.35 15.763686687855698 22.71405040776556 85.41252807058139 0 0 0
208 70 1 0.7 77.14821217635098 51.00204793084509 115.41957371328937 0 0 0
209 70 2 -0.35 76.03444180750586 51.08016423654479 115.10490975242568 0 0 0
210 70 2 -0.35 78.2619825451961 50.923931625145386 115.73423767415305 0 0 0
211 71 1 0.7 83.77539925453038 107.13527089223977 40.49788587377308 0 0 0
212 71 2 -0.35 84.81872042511284 106.69619489976013 40.75144692725422 0 0 0
213 71 2 -0.35 82.73207808394793 107.57434688471942 40.244324820291936 0 0 0
214 72 1 0.7 43.967880504190866 56.167633935887196 116.42356045610437 0 0 0
215 72 2 -0.35 42.81063603528314 56.1859167620106 116.50134848507679 0 0 0
216 72 2 -0.35 45.12512497309859 56.14935110976379 116.34577242713195 0 0 0
217 73 1 0.7 58.78058574617867 43.30463602501184 3.017672373921458 0 0 0
218 73 2 -0.35 58.728698605646194 44.39861079756099 3.399937885932931 0 0 0
219 73 2 -0.35 58.83247288671115 42.210661252462685 2.635406861909985 0 0 0
220 74 1 0.7 21.01958849794212 74.2238849132433 50.83373688013933 0 0 0
221 74 2 -0.35 19.870237752746785 74.31950012630585 50.709436455562695 0 0 0
222 74 2 -0.35 22.168939243137455 74.12826970018074 50.95803730471596 0 0 0
223 75 1 0.7 124.61574450163903 101.81783904732104 67.42086832477752 0 0 0
224 75 2 -0.35 124.07845463277408 101.12551514051617 66.66086358473866 0 0 0
225 75 2 -0.35 125.15303437050397 102.51016295412592 68.18087306481637 0 0 0
226 76 1 0.7 6.533934535707317 36.837741632870284 60.923623650764874 0 0 0
227 76 2 -0.35 7.491348767633052 37.166411002463214 61.49013440441165 0 0 0
228 76 2 -0.35 5.5765203037815825 36.50907226327735 60.3571128971181 0 0 0
229 77 1 0.7 70.34269840519069 93.73209604003098 7.338144800783202 0 0 0
230 77 2 -0.35 69.52316788654808 94.33760326178464 6.783770619009246 0 0 0
231 77 2 -0.35 71.1622289238333 93.12658881827733 7.892518982557158 0 0 0
232 78 1 0.7 8.199666763283158 39.79929050002214 41.675433872116464 0 0 0
233 78 2 -0.35 8.335619351829331 39.29203208449313 40.641119706331914 0 0 0
234 78 2 -0.35 8.063714174736985 40.30654891555115 42.709748037901015 0 0 0
235 79 1 0.7 98.01708866144395 43.20913288845175 74.8964562084975 0 0 0
236 79 2 -0.35 97.10415157235576 42.58531581403165 74.54574531755009 0 0 0
237 79 2 -0.35 98.93002575053214 43.832949962871844 75.24716709944491 0 0 0
238 80 1 0.7 2.7394962174536177 118.71292674295275 94.15976880684484 0 0 0
239 80 2 -0.35 3.67460556638464 118.11981231200254 94.50529127693963 0 0 0
240 80 2 -0.35 1.8043868685225952 119.30604117390295 93.81424633675005 0 0 0
241 81 1 0.7 100.23433664126058 27.495929666560112 46.08990587577685 0 0 0
242 81 2 -0.35 99.49033291393972 28.3317169862818 46.39571302076386 0 0 0
243 81 2 -0.35 100.97834036858144 26.660142346838423 45.78409873078984 0 0 0
244 82 1 0.7 117.04805418152738 105.64662893053453 46.892435493828934 0 0 0
245 82 2 -0.35 117.32345302932913 104.60693123019861 47.326928493249724 0 0 0
246 82 2 -0.35 116.77265533372562 106.68632663087045 46.457942494408144 0 0 0
247 83 1 0.7 60.163344782853194 63.33576541363065 105.20930689024242 0 0 0
248 83 2 -0.35 59.28006712113595 63.38438933140631 104.45893612393321 0 0 0
249 83 2 -0.35 61.04662244457044 63.28714149585498 105.95967765655162 0 0 0
250 84 1 0.7 49.82090430419003 0.9386405218106884 37.73125007223862 0 0 0
251 84 2 -0.35 50.97201071442221 0.7953052417632835 37.728245106994116 0 0 0
252 84 2 -0.35 48.66979789395785 1.0819758018580932 37.73425503748313 0 0 0
253 85 1 0.7 114.11996411444618 42.23687149688456 117.09924813876825 0 0 0
254 85 2 -0.35 115.02594172936561 41.556771691649104 116.84971093476133 0 0 0
255 85 2 -0.35 113.21398649952674 42.91697130212002 117.34878534277516 0 0 0
256 86 1 0.7 63.06346827794959 43.71134749879658 1.6174122740595658 0 0 0
257 86 2 -0.35 62.42811762229824 44.02648775842692 2.535353536408917 0 0 0
258 86 2 -0.35 63.69881893360094 43.39620723916624 0.6994710117102143 0 0 0
259 87 1 0.7 93.8480901191235 21.850632108678404 109.57385055794093 0 0 0
260 87 2 -0.35 93.53465468825034 21.341593279950324 110.56795201228073 0 0 0
261 87 2 -0.35 94.16152554999665 22.359670937406484 108.57974910360113 0 0 0
262 88 1 0.7 3.7063273134205152 114.24315665859876 48.73396106936688 0 0 0
263 88 2 -0.35 3.7109780399190537 113.9842996280675 47.603221749944595 0 0 0
264 88 2 -0.35 3.7016765869219768 114.50201368913002 49.86470038878916 0 0 0
265 89 1 0.7 50.68369284909391 53.82571472126325 100.787320271501 0 0 0
266 89 2 -0.35 49.9075981889885 54.318379541389625 100.07981871421245 0 0 0
267 89 2 -0.35 51.459787509199316 53.33304990113688 101.49482182878955 0 0 0
268 90 1 0.7 33.49180311732544 69.73499288863269 71.02547924966807 0 0 0
269 90 2 -0.35 34.24594099156606 68.95923818753924 71.44390571915493 0 0 0
270 90 2 -0.35 32.73766524308482 70.51074758972614 70.6070527801812 0 0 0
271 91 1 0.7 88.2297491711703 22.394319859051294 88.33387107510765 0 0 0
272 91 2 -0.35 87.22373117755404 22.195827476251814 87.79153485974774 0 0 0
273 91 2 -0.35 89.23576716478655 22.592812241850773 88.87620729046756 0 0 0
274 92 1 0.7 95.3711593343742 78.07493282718347 17.396026472745476 0 0 0
275 92 2 -0.35 94.48517964317215 77.78243541724129 18.085290755843495 0 0 0
276 92 2 -0.35 96.25713902557625 78.36743023712566 16.706762189647456 0 0 0
277 93 1 0.7 61.01692743320806 90.49936992791451 112.91037845933361 0 0 0
278 93 2 -0.35 59.8579314106492 90.4521816120254 112.92045231342657 0 0 0
279 93 2 -0.35 62.17592345576692 90.54655824380363 112.90030460524066 0 0 0
280 94 1 0.7 94.73076602012421 21.984500227488812 37.49532340443476 0 0 0
281 94 2 -0.35 94.82022107839636 21.32220297975449 38.44345849406759 0 0 0
282 94 2 -0.35 94.64131096185206 22.646797475223135 36.54718831480192 0 0 0
283 95 1 0.7 18.90045833489879 62.00323464395629 26.364660973364796 0 0 0
284 95 2 -0.35 17.749566565082464 61.864540859128034 26.407230542531707 0 0 0
285 95 2 -0.35 20.051350104715116 62.141928428784546 26.322091404197884 0 0 0
286 96 1 0.7 124.85697934211092 28.25180285808249 108.0506357923386 0 0 0
287 96 2 -0.35 124.2387985618792 28.586928777080683 108.97320998521835 0 0 0
288 96 2 -0.35 125.47516012234264 27.916676939084294 107.12806159945885 0 0 0
289 97 1 0.7 74.03576183460456 114.04915419875138 13.134618414628607 0 0 0
290 97 2 -0.35 74.02776418611404 114.51062188514376 12.070389298303425 0 0 0
291 97 2 -0.35 74.04375948309507 113.587686512359 14.198847530953788 0 0 0
292 98 1 0.7 34.53169466300481 3.1922011217997417 116.32425408825476 0 0 0
293 98 2 -0.35 34.24024425494582 2.6084441815223385 117.28336017952945 0 0 0
294 98 2 -0.35 34.82314507106379 3.775958062077145 115.36514799698007 0 0 0
295 99 1 0.7 66.73846129781495 18.319032375849332 93.97714089973697 0 0 0
296 99 2 -0.35 65.64115968023674 18.043380575136894 93.72112284407639 0 0 0
297 99 2 -0.35 67.83576291539316 18.59468417656177 94.23315895539754 0 0 0
298 100 1 0.7 126.80710187917906 37.96128336245254 110.28947273981267 0 0 0
299 100 2 -0.35 126.53951135949787 39.07815688335133 110.12641185519628 0 0 0
300 100 2 -0.35 127.07469239886025 36.84440984155375 110.45253362442905 0 0 0
301 101 1 0.7 34.16833803158642 88.25729687291071 98.38854301040459 0 0 0
302 101 2 -0.35 33.297201928494005 88.16192890006688 97.62852535294878 0 0 0
303 101 2 -0.35 35.03947413467884 88.35266484575455 99.1485606678604 0 0 0
304 102 1 0.7 94.24237586988247 69.61124511464091 55.196641769817404 0 0 0
305 102 2 -0.35 95.33769630070934 69.99309414061719 55.18861212635015 0 0 0
306 102 2 -0.35 93.14705543905559 69.22939608866463 55.20467141328466 0 0 0
307 103 1 0.7 50.9582253210052 23.892970134454302 121.14904977341604 0 0 0
308 103 2 -0.35 49.932122141641955 23.353291614560924 121.11084819666416 0 0 0
309 103 2 -0.35 51.98432850036845 24.43264865434768 121.18725135016791 0 0 0
310 104 1 0.7 16.079541803374674 122.85908931813161 118.71416983786699 0 0 0
311 104 2 -0.35 14.91994694532108 122.88092943356777 118.69265764287435 0 0 0
312 104 2 -0.35 17.23913666142827 122.83724920269545 118.73568203285963 0 0 0
313 105 1 0.7 115.05246503048225 105.77976731526655 91.54926768483094 0 0 0
314 105 2 -0.35 114.17252183105101 106.42582606676929 91.15695651320638 0 0 0
315 105 2 -0.35 115.93240822991349 105.13370856376382 91.9415788564555 0 0 0
316 106 1 0.7 85.5419789536586 128.04027413997812 123.88747061225001 0 0 0
317 106 2 -0.35 84.41194988019276 127.96170032179141 123.63754972833374 0 0 0
318 106 2 -0.35 86.67200802712443 128.11884795816485 124.13739149616629 0 0 0
319 107 1 0.7 116.7185800861188 115.17550739886961 109.75285280158411 0 0 0
320 107 2 -0.35 117.41757259929592 114.25802935856971 109.87631742036133 0 0 0
321 107 2 -0.35 116.01958757294169 116.09298543916951 109.62938818280689 0 0 0
322 108 1 0.7 45.19703622404347 74.58781749875648 104.44870160028744 0 0 0
323 108 2 -0.35 46.3480890285743 74.63214408140784 104.58549558865008 0 0 0
324 108 2 -0.35 44.045983419512645 74.54349091610511 104.3119076119248 0 0 0
325 109 1 0.7 37.32779603094226 41.26789204649063 85.46162536808366 0 0 0
326 109 2 -0.35 36.17988837032546 41.36908951258858 85.32870781637351 0 0 0
327 109 2 -0.35 38.47570369155906 41.16669458039268 85.59454291979381 0 0 0
328 110 1 0.7 67.5375613819517 32.794146462247774 83.21959099835696 0 0 0
329 110 2 -0.35 68.30880415952437 33.559362862344216 83.62607401038262 0 0 0
330 110 2 -0.35 66.76631860437904 32.02893006215133 82.8131079863313 0 0 0
331 111 1 0.7 53.66590938561871 123.93904409368477 80.51408256008946 0 0 0
332 111 2 -0.35 52.82705761882845 124.23180215561368 81.25988443091607 0 0 0
333 111 2 -0.35 54.504761152408975 123.64628603175586 79.76828068926285 0 0 0
334 112 1 0.7 119.18558742347433 40.16782633316136 43.65718144302125 0 0 0
335 112 2 -0.35 118.31035716395745 39.45300588879703 43.919104571333314 0 0 0
336 112 2 -0.35 120.06081768299121 40.882646777525686 43.39525831470919 0 0 0
337 113 1 0.7 123.24851285817498 84.75560734689032 69.49267918546343 0 0 0
338 113 2 -0.35 122.25636168722949 85.3323692613455 69.66174055901003 0 0 0
339 113 2 -0.35 124.24066402912047 84.17884543243512 69.32361781191683 0 0 0
340 114 1 0.7 126.459070083899 122.59090009033257 126.25781821937198 0 0 0
341 114 2 -0.35 125.37641251457848 122.32853081433242 125.93437587427145 0 0 0
342 114 2 -0.35 127.54172765321951 122.85326936633271 126.58126056447252 0 0 0
343 115 1 0.7 94.15081298498009 78.71383856037346 48.48468419652651 0 0 0
344 115 2 -0.35 95.06443786599922 78.84818500629947 47.7826581220465 0 0 0
345 115 2 -0.35 93.23718810396096 78.57949211444745 49.18671027100652 0 0 0
346 116 1 0.7 118.08729102094065 28.100188949657692 10.875676896830871 0 0 0
347 116 2 -0.35 118.31637028344912 27.025156603889172 10.504963871648297 0 0 0
348 116 2 -0.35 117.85821175843219 29.175221295426212 11.246389922013446 0 0 0
349 117 1 0.7 123.50160503643639 81.47584738651096 29.567025089900486 0 0 0
350 117 2 -0.35 123.69212899857925 81.36416522141488 28.42824165401426 0 0 0
351 117 2 -0.35 123.31108107429353 81.58752955160705 30.70580852578671 0 0 0
352 118 1 0.7 24.99068595747961 123.45888735980674 8.51985627204173 0 0 0
353 118 2 -0.35 23.836094120578302 123.53167975906416 8.60482071620055 0 0 0
354 118 2 -0.35 26.145277794380917 123.38609496054931 8.434891827882911 0 0 0
355 119 1 0.7 3.224364205368033 11.889199620526842 0.7780221946435153 0 0 0
356 119 2 -0.35 4.221459929155152 12.315815917624752 1.1896028703996877 0 0 0
357 119 2 -0.35 2.2272684815809134 11.462583323428932 0.366441518887343 0 0 0
358 120 1 0.7 47.219025373560854 2.1594534372722047 44.93392023394533 0 0 0
359 120 2 -0.35 46.566971987856576 1.2750315270007442 45.305705476825366 0 0 0
360 120 2 -0.35 47.87107875926513 3.0438753475436653 44.56213499106529 0 0 0
361 121 1 0.7 38.39737191907939 86.6298439673287 93.78755889357419 0 0 0
362 121 2 -0.35 37.35203249550754 86.1490606909192 93.9349119751552 0 0 0
363 121 2 -0.35 39.44271134265124 87.1106272437382 93.64020581199317 0 0 0
364 122 1 0.7 36.50232430151772 99.56453560831237 122.1499689059099 0 0 0
365 122 2 -0.35 35.54918099749017 98.97429339730762 121.85208977885385 0 0 0
366 122 2 -0.35 37.455467605545266 100.15477781931712 122.44784803296595 0 0 0
367 123 1 0.7 68.52740162775265 28.039157638810185 17.122435482741533 0 0 0
368 123 2 -0.35 68.51840975207685 28.573539186379723 16.09289407619733 0 0 0
369 123 2 -0.35 68.53639350342846 27.504776091240647 18.151976889285738 0 0 0
370 124 1 0.7 106.77315843700113 17.473850677941858 79.00834416877866 0 0 0
371 124 2 -0.35 105.62108090902517 17.57099058382026 79.10258433122937 0 0 0
372 124 2 -0.35 107.92523596497709 17.376710772063454 78.91410400632796 0 0 0
373 125 1 0.7 96.2404446630927 111.15345259902695 107.07783184576678 0 0 0
374 125 2 -0.35 95.36147516625448 111.53314509595707 106.42296832456337 0 0 0
375 125 2 -0.35 97.11941415993093 110.77376010209683 107.73269536697019 0 0 0
376 126 1 0.7 107.11983180237927 39.013102588249886 115.2152007157985 0 0 0
377 126 2 -0.35 106.47569916543823 38.117546549326185 115.57391024616348 0 0 0
378 126 2 -0.35 107.7639644393203 39.90865862717359 114.85649118543353 0 0 0
379 127 1 0.7 2.8784304255984865 2.780163033763023 28.20010845512157 0 0 0
380 127 2 -0.35 2.527968295267342 3.729946815119261 28.766400838856686 0 0 0
381 127 2 -0.35 3.228892555929631 1.830379252406785 27.633816071386452 0 0 0
382 128 1 0.7 13.222805228188077 97.68747015701955 50.310929027530804 0 0 0
383 128 2 -0.35 12.314366434571657 97.16345476805526 49.81520044213215 0 0 0
384 128 2 -0.35 14.131244021804498 98.21148554598383 50.806657612929456 0 0 0
385 129 1 0.7 109.7841657101103 55.47308982371962 53.22066725567946 0 0 0
386 129 2 -0.35 108.72366175015345 55.937896406893046 53.29056855147915 0 0 0
387 129 2 -0.35 110.84466967006715 55.00828324054619 53.15076595987977 0 0 0
388 130 1 0.7 122.75456620461986 38.99420104594631 55.53697921966062 0 0 0
389 130 2 -0.35 121.68472687712914 38.76800557101598 55.14983658383344 0 0 0
390 130 2 -0.35 123.82440553211059 39.22039652087664 55.924121855487805 0 0 0
391 131 1 0.7 95.00974483602202 66.78145902221159 95.98178631019861 0 0 0
392 131 2 -0.35 94.27971721080444 65.99210472307652 96.41719354125496 0 0 0
393 131 2 -0.35 95.73977246123961 67.57081332134666 95.54637907914227 0 0 0