LAMMPS data file via write_data, version 29 Aug 2024, timestep = 4000000, units = real

1500 atoms
2 atom types
1000 bonds
1 bond types
500 angles
1 angle types

0 129 xlo xhi
0 129 ylo yhi
0 129 zlo zhi

Masses

1 12.0107
2 15.9994

PairIJ Coeffs # lj/cut/coul/long/gpu

1 1 0.053649 2.8 12
1 2 0.0917684 2.925 12
2 2 0.156973 3.05 12

Bond Coeffs # harmonic

1 0 1.16

Angle Coeffs # harmonic

1 0 180

Atoms # full

374 125 2 -0.35 18.214213683584365 18.222565232924655 10.006235178901019 -5 2 2
373 125 1 0.7 17.60670406726041 17.789910882229442 9.117785811240049 -5 2 2
375 125 2 -0.35 16.999194450936454 17.357256531534226 8.229336443579081 -5 2 2
392 131 2 -0.35 17.98472742899486 22.18886543584443 18.46471516317062 1 5 7
700 234 1 0.7 1.8295870632604379 3.4665428827050513 11.376541289213966 6 -1 -1
702 234 2 -0.35 2.549202202797908 3.5172391262669507 10.468144931981023 6 -1 -1
701 234 2 -0.35 1.1099719237229677 3.4158466391431515 12.28493764644691 6 -1 -1
484 162 1 0.7 8.122821404802256 18.272837712099925 19.361858459015707 -3 2 -5
486 162 2 -0.35 7.612786485724188 17.87703595492392 18.398112978956455 -3 2 -5
480 160 2 -0.35 31.250284200553068 10.607358520121673 6.917455737594571 5 1 0
479 160 2 -0.35 29.27281987030639 11.256733692601424 5.89259149879458 5 1 0
478 160 1 0.7 30.261552035429727 10.932046106361549 6.405023618194575 5 1 0
630 210 2 -0.35 26.37719937169036 14.38089078470425 15.88733698037305 -1 3 -5
628 210 1 0.7 26.893823665120237 13.374322921604229 16.143306659067736 -1 3 -5
629 210 2 -0.35 27.410447958550115 12.367755058504205 16.399276337762426 -1 3 -5
325 109 1 0.7 38.056185725417805 16.185918273874446 12.860087122070823 -2 -2 2
327 109 2 -0.35 37.77084267319137 15.483602766965133 13.738114610990486 -2 -2 2
326 109 2 -0.35 38.34152877764425 16.88823378078376 11.982059633151161 -2 -2 2
270 90 2 -0.35 39.05275473399958 19.270110630098024 10.825042394213883 3 3 -1
268 90 1 0.7 40.03916455943558 19.108595106745444 10.236392759881817 3 3 -1
269 90 2 -0.35 41.025574384871575 18.947079583392863 9.64774312554975 3 3 -1
559 187 1 0.7 41.46222380644417 7.690670251103299 9.497114210918427 3 -1 0
560 187 2 -0.35 41.21391750527652 7.159460891304326 10.497994122226569 3 -1 0
561 187 2 -0.35 41.71053010761182 8.221879610902272 8.496234299610284 3 -1 0
776 259 2 -0.35 59.03469190793787 11.5219240024962 127.96265469281215 5 -5 -6
1461 487 2 -0.35 82.33891417985014 9.652140610355307 7.728657687451962 -3 0 0
1459 487 1 0.7 81.27833276102744 9.747111925288984 8.188817989289895 -3 0 0
1460 487 2 -0.35 80.21775134220475 9.842083240222662 8.648978291127827 -3 0 0
517 173 1 0.7 75.87136250594338 13.98188149668477 14.634486165617888 2 -2 5
518 173 2 -0.35 75.21363883491176 14.062306121299981 13.682366712859297 2 -2 5
519 173 2 -0.35 76.529086176975 13.90145687206956 15.58660561837648 2 -2 5
666 222 2 -0.35 81.1102501818316 21.304937570185274 12.905771808944573 0 3 -2
664 222 1 0.7 82.10586544268938 21.116314834692133 13.470370530162366 0 3 -2
633 211 2 -0.35 86.17033076619445 20.278243340013585 8.034820613895558 -1 1 -4
1322 441 2 -0.35 95.14101762870432 20.634459643488846 4.385465110161241 -1 0 -1
1321 441 1 0.7 94.75350197003608 19.54130337159511 4.36446559805058 -1 0 -1
1323 441 2 -0.35 94.36598631136785 18.448147099701373 4.3434660859399195 -1 0 -1
1256 419 2 -0.35 96.89913294334839 128.0521767089923 8.598605745455249 4 1 2
570 190 2 -0.35 128.15253097068157 11.718150041123947 2.6047124442393206 7 -3 -2
791 264 2 -0.35 116.28206744216216 11.665278976928573 4.496669383528908 5 0 2
761 254 2 -0.35 119.14382852891872 14.143946017038386 10.6670326328083 4 1 -6
760 254 1 0.7 119.35783266586155 14.53790610296739 9.597173913131893 4 1 -6
762 254 2 -0.35 119.57183680280438 14.931866188896395 8.527315193455486 4 1 -6
792 264 2 -0.35 117.56999955574437 10.970056559590336 6.2967517875421315 5 0 2
790 264 1 0.7 116.92603349895326 11.317667768259454 5.396710585535519 5 0 2
1293 431 2 -0.35 122.72927197386609 3.1659393732908905 20.570040146130278 4 -3 -1
1292 431 2 -0.35 120.74492044911962 4.155682768423294 19.888015925131324 4 -3 -1
1291 431 1 0.7 121.73709621149285 3.6608110708570925 20.2290280356308 4 -3 -1
568 190 1 0.7 127.65343151006184 12.59464726954924 3.177645544148513 7 -3 -2
569 190 2 -0.35 127.1543320494421 13.471144497974533 3.750578644057706 7 -3 -2
1422 474 2 -0.35 110.9558995605986 0.990934093641185 5.47683776844623 -3 0 1
1420 474 1 0.7 110.07854545263169 0.45919215597887614 6.018225135277331 -3 0 1
957 319 2 -0.35 106.95807300599715 11.587069195264565 0.23486144579533086 -6 -2 5
393 131 2 -0.35 16.064128395732233 23.27308582581968 19.18455229710821 1 5 7
391 131 1 0.7 17.024427912363546 22.730975630832056 18.824633730139414 1 5 7
907 303 1 0.7 3.0701013943702566 36.757086034675694 10.632294570813148 -3 -2 -6
909 303 2 -0.35 3.122562432309648 35.872901804591166 9.883251122961818 -3 -2 -6
908 303 2 -0.35 3.0176403564308654 37.64127026476022 11.381338018664477 -3 -2 -6
11 4 2 -0.35 15.665539070112427 29.297075681975503 12.87979070203078 6 1 3
10 4 1 0.7 14.730799647764709 28.63851856449785 12.684432734879206 6 1 3
12 4 2 -0.35 13.79606022541699 27.9799614470202 12.489074767727633 6 1 3
244 82 1 0.7 0.8880255537105761 27.943427953639482 3.6510723061035915 3 -2 5
246 82 2 -0.35 0.5493338731581858 28.580647220728235 2.7428655283397587 3 -2 5
245 82 2 -0.35 1.2267172342629664 27.30620868655073 4.559279083867424 3 -2 5
1022 341 2 -0.35 21.34018471923352 30.249102809257142 22.101639578857203 6 -1 2
134 45 2 -0.35 43.05097741808564 33.78791746296004 1.4412537422689145 -3 -5 3
133 45 1 0.7 42.99395231066129 34.863892750092916 1.8709342265860378 -3 -5 3
135 45 2 -0.35 42.936927203236955 35.939868037225786 2.300614710903161 -3 -5 3
114 38 2 -0.35 37.8464865655072 42.530028860432225 3.904076222667907 2 1 9
113 38 2 -0.35 36.99595973234941 43.509220367587126 5.827663522062142 2 1 9
112 38 1 0.7 37.421223148928306 43.01962461400968 4.865869872365025 2 1 9
1484 495 2 -0.35 55.228757082625464 31.850863033514408 16.97753071904605 -2 -1 0
1483 495 1 0.7 55.08801381102049 32.56802421301795 17.87834766721592 -2 -1 0
1485 495 2 -0.35 54.94727053941552 33.28518539252149 18.77916461538579 -2 -1 0
932 311 2 -0.35 63.55540676777253 41.11896619121615 12.806074052978603 1 5 -3
665 222 2 -0.35 83.10148070354714 20.92769209919899 14.03496925138016 0 3 -2
931 311 1 0.7 64.34915042806963 40.27461863685461 12.85753480675492 1 5 -3
933 311 2 -0.35 65.14289408836675 39.43027108249307 12.908995560531237 1 5 -3
632 211 2 -0.35 84.87044829382664 22.154835009160394 7.621167056774844 -1 1 -4
631 211 1 0.7 85.52038953001055 21.21653917458699 7.827993835335201 -1 1 -4
512 171 2 -0.35 92.10772408055178 25.130324455467726 6.865008899244002 -3 -5 3
511 171 1 0.7 92.64647798018625 26.006198021812533 6.328175841948365 -3 -5 3
513 171 2 -0.35 93.18523187982072 26.88207158815734 5.791342784652729 -3 -5 3
1375 459 1 0.7 91.67286349081515 39.826288615211496 13.947061133009642 -5 10 -2
1376 459 2 -0.35 92.37655559039294 40.200423938829566 14.789937273741263 -5 10 -2
1377 459 2 -0.35 90.96917139123737 39.45215329159343 13.104184992278023 -5 10 -2
92 31 2 -0.35 88.51757626043515 25.22039842737013 20.794858594652407 1 -6 0
91 31 1 0.7 89.01744241976722 24.55750726439473 21.604987676220386 1 -6 0
1273 425 1 0.7 98.80275387774441 24.6219264857371 4.814699408263421 -2 0 -2
1275 425 2 -0.35 97.88394441882642 24.523576052513384 5.515924315470167 -2 0 -2
1274 425 2 -0.35 99.7215633366624 24.72027691896081 4.113474501056675 -2 0 -2
843 281 2 -0.35 115.73710081684143 27.32478787198671 1.0192141302272606 2 -4 3
842 281 2 -0.35 116.60680819876698 27.70601122488355 3.1359752941338153 2 -4 3
841 281 1 0.7 116.1719545078042 27.51539954843513 2.077594712180538 2 -4 3
6 2 2 -0.35 123.11355673418707 39.036405296511695 4.831228053484951 0 -3 9
4 2 1 0.7 123.9555267898485 39.82889692342591 4.738257915065162 0 -3 9
5 2 2 -0.35 124.79749684550994 40.621388550340114 4.6452877766453735 0 -3 9
104 35 2 -0.35 125.64537664037509 40.38975157968078 14.558090028057748 -1 -3 5
103 35 1 0.7 125.18536352850563 40.883620561690854 13.61464879219901 -1 -3 5
105 35 2 -0.35 124.72535041663619 41.37748954370093 12.67120755634027 -1 -3 5
1066 356 1 0.7 15.532501573643797 63.23935511352866 0.002854472445725571 1 -3 -1
1067 356 2 -0.35 16.30049701162835 62.51933569313587 128.51566350219744 1 -3 -2
1068 356 2 -0.35 14.764506135659243 63.95937453392145 0.49004544269401773 1 -3 -1
357 119 2 -0.35 6.834485776201785 61.081677068781936 10.932561479102315 1 -2 -5
355 119 1 0.7 6.741489886691396 60.1764152885677 10.213219506311338 1 -2 -5
356 119 2 -0.35 6.648493997181007 59.27115350835347 9.493877533520362 1 -2 -5
1011 337 2 -0.35 19.287393883641975 55.42452115133331 7.307020072969561 0 0 -5
1009 337 1 0.7 19.384531111368997 54.273026173674715 7.408132265191315 0 0 -5
1010 337 2 -0.35 19.48166833909602 53.12153119601612 7.50924445741307 0 0 -5
1359 453 2 -0.35 1.8224868219016672 60.024068641663575 6.734344438189252 -1 -1 -8
1357 453 1 0.7 0.810974496315194 59.493678819443154 6.531540464680368 -1 -1 -8
1358 453 2 -0.35 128.7994621707287 58.96328899722273 6.328736491171483 -2 -1 -8
997 333 1 0.7 16.316945028757164 60.22017896180555 4.609077080133541 0 1 2
998 333 2 -0.35 15.266982120231853 60.695895268951546 4.738968903718133 0 1 2
999 333 2 -0.35 17.366907937282473 59.74446265465956 4.479185256548948 0 1 2
86 29 2 -0.35 37.52174794866863 52.80989854322187 13.639029317443734 -3 -1 -1
85 29 1 0.7 36.41061969866477 53.07254457580447 13.843995347829152 -3 -1 -1
87 29 2 -0.35 35.2994914486609 53.33519060838708 14.04896137821457 -3 -1 -1
1261 421 1 0.7 34.02946174929856 45.57759413141969 20.488123992436993 10 1 5
1262 421 2 -0.35 33.05914562675493 45.01183344707149 20.777954063994816 10 1 5
1263 421 2 -0.35 34.99977787184219 46.143354815767886 20.19829392087917 10 1 5
1048 350 1 0.7 39.98855901910012 59.69407891907181 7.998170671171493 -2 5 10
1050 350 2 -0.35 39.32381090471814 59.02584697173345 7.3220227517166165 -2 5 10
1049 350 2 -0.35 40.65330713348211 60.36231086641017 8.67431859062637 -2 5 10
1167 389 2 -0.35 54.79039490928534 55.68384918805499 11.150448705801853 -2 -3 6
1165 389 1 0.7 54.60807341814342 55.93293608707368 10.032274036707102 -2 -3 6
1166 389 2 -0.35 54.4257519270015 56.18202298609236 8.914099367612351 -2 -3 6
594 198 2 -0.35 53.41692402430175 48.09814578672595 15.219928439897036 5 -6 -3
593 198 2 -0.35 53.60220664737345 49.60713809142327 13.46749796368527 5 -6 -3
592 198 1 0.7 53.5095653358376 48.85264193907461 14.343713201791154 5 -6 -3
785 262 2 -0.35 44.53167578819025 42.78157648032325 4.825355733475769 2 -1 3
784 262 1 0.7 45.28976944721736 42.74967596806333 5.7027817197905435 2 -1 3
786 262 2 -0.35 46.04786310624447 42.717775455803405 6.580207706105319 2 -1 3
534 178 2 -0.35 74.76902733797488 52.43088015484283 2.1109155983324763 -2 3 0
532 178 1 0.7 74.70732746510872 52.215515058770045 3.249076835187575 -2 3 0
533 178 2 -0.35 74.64562759224256 52.00014996269726 4.387238072042674 -2 3 0
368 123 2 -0.35 90.13520271261714 43.60182417146376 2.5186660446024494 -4 4 -2
367 123 1 0.7 90.64565645239193 43.84807273746123 3.5307918388068944 -4 4 -2
369 123 2 -0.35 91.15611019216672 44.0943213034587 4.542917633011339 -4 4 -2
818 273 2 -0.35 102.68002026961011 60.07697745132188 12.018709408835193 2 -4 1
817 273 1 0.7 101.73323468500028 59.440007489739216 12.227195199281391 2 -4 1
819 273 2 -0.35 100.78644910039046 58.803037528156544 12.43568098972759 2 -4 1
395 132 2 -0.35 88.5831670191763 58.60785814343035 14.718020136016094 -6 1 -1
394 132 1 0.7 87.90814108659609 58.61462723160292 15.661362157654589 -6 1 -1
396 132 2 -0.35 87.23311515401589 58.62139631977548 16.604704179293083 -6 1 -1
1314 438 2 -0.35 92.02940969701363 62.427777383623074 127.17389975847092 -1 6 2
1374 458 2 -0.35 13.83968875290069 67.97376539673418 3.9824987642202525 3 -6 5
1373 458 2 -0.35 13.33862140356503 69.90812383049244 2.803690484141458 3 -6 5
1372 458 1 0.7 13.58915507823286 68.94094461361331 3.3930946241808555 3 -6 5
1472 491 2 -0.35 19.387664503666393 68.38893506771913 6.239349138027647 -4 6 -7
1471 491 1 0.7 18.3681836140596 68.22179301054771 6.766911692091295 -4 6 -7
1473 491 2 -0.35 17.348702724452803 68.05465095337631 7.294474246154943 -4 6 -7
1092 364 2 -0.35 31.08158500043845 81.36026173197517 9.551842317392552 2 5 4
1091 364 2 -0.35 28.85272086967661 80.85768628116392 9.149371693808362 2 5 4
1090 364 1 0.7 29.96715293505753 81.10897400656954 9.350607005600457 2 5 4
1363 455 1 0.7 24.823859011160447 68.10980762611543 2.6538505447932637 -4 -4 1
1364 455 2 -0.35 25.609707006941655 68.53741897041556 1.9154797261996366 -4 -4 1
1365 455 2 -0.35 24.03801101537924 67.68219628181528 3.3922213633868905 -4 -4 1
967 323 1 0.7 49.387104349702135 84.04873353809516 4.775362421467985 0 0 -1
969 323 2 -0.35 48.84507669752802 83.22177372109952 4.16877896855073 0 0 -1
968 323 2 -0.35 49.92913200187624 84.87569335509082 5.381945874385241 0 0 -1
1056 352 2 -0.35 87.67740744558286 76.2825793735999 20.197746459179402 -3 -2 -2
1054 352 1 0.7 87.82047274220676 77.42278482595749 20.039430801971815 -3 -2 -2
132 44 2 -0.35 98.31915549763168 66.85897630867633 0.8263606337575033 -5 -3 0
130 44 1 0.7 98.65122763702107 66.52117665081842 1.8852371541271002 -5 -3 0
131 44 2 -0.35 98.98329977641045 66.1833769929605 2.9441136744966974 -5 -3 0
1055 352 2 -0.35 87.96353803883068 78.56299027831508 19.881115144764223 -3 -2 -2
682 228 1 0.7 128.7095633842254 94.43961098036203 2.332110500303215 -6 4 1
683 228 2 -0.35 0.8493246258572911 94.38579835005048 2.123188235107391 -5 4 1
1455 485 2 -0.35 10.949148075988973 90.24184390752889 15.797545085540223 -7 0 2
1454 485 2 -0.35 11.656964487081865 92.34180763189443 16.484238819697914 -7 0 2
1453 485 1 0.7 11.303056281535419 91.29182576971166 16.140891952619068 -7 0 2
677 226 2 -0.35 12.269261954318267 92.10361032165466 19.539403910805472 6 2 -1
676 226 1 0.7 13.346960638719837 91.71665587153319 19.3538458358768 6 2 -1
678 226 2 -0.35 14.424659323121405 91.32970142141171 19.16828776094813 6 2 -1
1158 386 2 -0.35 40.32754923169069 95.4907029958988 10.674454474160202 -5 -3 1
1156 386 1 0.7 40.58930980163844 96.44542928417638 10.069823083567524 -5 -3 1
1157 386 2 -0.35 40.8510703715862 97.40015557245397 9.465191692974846 -5 -3 1
33 11 2 -0.35 55.08025815329589 102.60541208952706 15.091814752888993 0 -1 -6
31 11 1 0.7 55.221787382935965 101.6196170914272 15.686606900514793 0 -1 -6
32 11 2 -0.35 55.36331661257604 100.63382209332732 16.281399048140596 0 -1 -6
1386 462 2 -0.35 59.69216017920416 106.96349940123397 16.70408743587863 -4 -3 4
1384 462 1 0.7 59.58968909835238 106.72295036680379 17.83423602771261 -4 -3 4
1385 462 2 -0.35 59.487218017500595 106.4824013323736 18.964384619546585 -4 -3 4
1289 430 2 -0.35 75.88371486925357 97.52291932307949 14.90248659156482 9 5 0
1288 430 1 0.7 76.88970454853731 97.70685577321642 15.449982844959873 9 5 0
1290 430 2 -0.35 77.89569422782107 97.89079222335336 15.997479098354928 9 5 0
1163 388 2 -0.35 89.44758701625994 96.28767265867776 17.11780442518888 -2 -2 -6
1162 388 1 0.7 88.74958910294768 96.7009458285435 16.288585394967477 -2 -2 -6
1164 388 2 -0.35 88.05159118963542 97.11421899840924 15.459366364746074 -2 -2 -6
339 113 2 -0.35 107.7926790500461 87.98616845328054 7.049671626125585 1 -4 5
337 113 1 0.7 107.68118984610224 87.04563461122932 6.379920740078296 1 -4 5
338 113 2 -0.35 107.56970064215837 86.10510076917808 5.710169854031007 1 -4 5
962 321 2 -0.35 93.22185723798665 99.77341008317778 4.143125390038859 -2 6 3
961 321 1 0.7 92.4708257825474 100.29332002740178 3.428111122462667 -2 6 3
963 321 2 -0.35 91.71979432710813 100.81322997162579 2.7130968548864747 -2 6 3
1500 500 2 -0.35 104.43998101901003 97.56345616338744 19.008491655588063 -2 0 6
1498 500 1 0.7 104.82329368046143 98.5972224554174 19.369044920769138 -2 0 6
1499 500 2 -0.35 105.20660634191283 99.63098874744735 19.729598185950213 -2 0 6
684 228 2 -0.35 127.56980214259352 94.4934236106736 2.541032765499039 -6 4 1
1183 395 1 0.7 116.19932477797951 98.91084861990721 4.106076860271553 0 -5 -2
1185 395 2 -0.35 115.33475321053312 98.96257820137814 3.3344292365700428 0 -5 -2
1184 395 2 -0.35 117.0638963454259 98.85911903843629 4.877724483973064 0 -5 -2
828 276 2 -0.35 116.33901073288844 94.1013285502181 10.685754726206005 2 -1 -10
826 276 1 0.7 116.55169328356322 93.92429987142023 9.559243749996275 2 -1 -10
827 276 2 -0.35 116.76437583423801 93.74727119262235 8.432732773786546 2 -1 -10
660 220 2 -0.35 118.25058483231683 102.19653932649337 1.0316727289840735 3 2 1
658 220 1 0.7 119.26725456590604 102.3085918643291 1.578871853223932 3 2 1
659 220 2 -0.35 120.28392429949525 102.42064440216484 2.1260709774637907 3 2 1
279 93 2 -0.35 17.645650601285787 110.63122295428538 2.6810748517747807 2 0 -3
277 93 1 0.7 18.544853712911085 110.37999814901706 1.9926564751607814 2 0 -3
278 93 2 -0.35 19.44405682453638 110.12877334374873 1.3042380985467819 2 0 -3
491 164 2 -0.35 19.958911218555496 125.19979968450835 20.451008418745268 -4 0 1
490 164 1 0.7 20.849801993101945 124.60295445683012 20.008640470059007 -4 0 1
492 164 2 -0.35 21.740692767648394 124.00610922915189 19.566272521372746 -4 0 1
74 25 2 -0.35 35.69654453359912 119.85034988665399 16.838699057626563 4 2 -3
73 25 1 0.7 34.99366620667333 119.48971033752393 15.989286806042413 4 2 -3
75 25 2 -0.35 34.29078787974754 119.12907078839388 15.139874554458263 4 2 -3
916 306 1 0.7 38.493599085761836 119.57446207877662 21.958704020121694 -10 -4 2
917 306 2 -0.35 37.33667037874573 119.51705552692927 21.896894193342703 -10 -4 2
217 73 1 0.7 40.27583813012921 112.52093985033622 5.482769859137385 -3 2 -2
218 73 2 -0.35 39.70149424249477 112.36881700785412 6.479056835631859 -3 2 -2
996 332 2 -0.35 24.04177379324926 128.0093347819925 4.7892842045833515 -7 4 -3
219 73 2 -0.35 40.85018201776365 112.6730626928183 4.48648288264291 -3 2 -2
994 332 1 0.7 25.056856660417456 127.91896377376902 5.343395974584071 -7 4 -3
995 332 2 -0.35 26.071939527585652 127.82859276554554 5.897507744584791 -7 4 -3
213 71 2 -0.35 51.81132335303895 113.47186030565601 5.740471695618217 1 -2 -1
211 71 1 0.7 52.79898690669274 113.7052553250164 5.17864657182733 1 -2 -1
212 71 2 -0.35 53.78665046034653 113.93865034437678 4.616821448036443 1 -2 -1
901 301 1 0.7 61.18968126017287 126.00988959621553 7.131439712665686 1 5 -1
903 301 2 -0.35 61.963738107950924 126.19885515297761 6.288392848747052 1 5 -1
902 301 2 -0.35 60.415624412394806 125.82092403945344 7.9744865765843205 1 5 -1
272 91 2 -0.35 68.66900832420494 115.10055482051662 14.790025366082244 2 -3 -3
273 91 2 -0.35 67.82781479484935 112.98584650058895 14.339689749243934 2 -3 -3
271 91 1 0.7 68.24841155952714 114.04320066055278 14.564857557663089 2 -3 -3
204 68 2 -0.35 76.10565756911218 119.53639633974984 21.946462637890964 1 -5 0
1255 419 1 0.7 96.58699183706324 127.57652594883822 7.587703037906347 4 1 2
1257 419 2 -0.35 96.27485073077808 127.10087518868414 6.576800330357447 4 1 2
1451 484 2 -0.35 95.9255775934696 122.15057214603884 3.190513008712068 0 1 5
1450 484 1 0.7 95.28778916195019 121.20766709341436 2.967452527329407 0 1 5
1452 484 2 -0.35 94.65000073043078 120.26476204078988 2.744392045946746 0 1 5
782 261 2 -0.35 108.47223346627537 109.83752543393047 5.934577955023125 -1 5 -6
1311 437 2 -0.35 112.11875247207037 125.25320542692145 16.69221803567383 -1 -8 -2
1309 437 1 0.7 112.45596542178758 126.27927495528915 17.115383191964288 -1 -8 -2
783 261 2 -0.35 110.59286702728515 110.57312812050851 5.347890655501184 -1 5 -6
781 261 1 0.7 109.53255024678026 110.20532677721948 5.641234305262154 -1 5 -6
1310 437 2 -0.35 112.7931783715048 127.30534448365685 17.538548348254746 -1 -8 -2
1250 417 2 -0.35 126.53475941156141 109.53386021843649 10.904411918155901 -7 1 0
1251 417 2 -0.35 127.77828743682637 111.48737902571743 11.04513263440867 -7 1 0
1249 417 1 0.7 127.15652342419389 110.51061962207696 10.974772276282286 -7 1 0
437 146 2 -0.35 119.91276129436045 122.24610137560273 3.577462013810965 -2 3 -2
438 146 2 -0.35 118.69027355391916 122.02630538793755 5.536955174878683 -2 3 -2
436 146 1 0.7 119.3015174241398 122.13620338177014 4.557208594344824 -2 3 -2
1421 474 2 -0.35 109.20119134466479 128.92745021831658 6.559612502108433 -3 -1 1
419 140 2 -0.35 14.334829431682644 12.370681099561592 29.182630067141915 -5 2 3
418 140 1 0.7 13.996500463634979 11.36827522363313 29.658356847219796 -5 2 3
420 140 2 -0.35 13.658171495587313 10.365869347704669 30.134083627297677 -5 2 3
485 162 2 -0.35 8.632856323880326 18.66863946927593 20.325603939074963 -3 2 -5
722 241 2 -0.35 20.304862626414508 7.230939438990074 35.57899199191681 10 -6 1
721 241 1 0.7 19.787446391403986 7.940538633724167 36.33685043686582 10 -6 1
723 241 2 -0.35 19.270030156393464 8.65013782845826 37.09470888181483 10 -6 1
1211 404 2 -0.35 53.06571022887198 18.01665558498727 27.92316588024311 1 1 -2
1210 404 1 0.7 53.337068984376344 18.483143031934965 26.896348521774517 1 1 -2
1212 404 2 -0.35 53.60842773988071 18.94963047888266 25.869531163305922 1 1 -2
1449 483 2 -0.35 56.798741789687135 17.151279057214794 30.789609440163396 -3 -4 1
1447 483 1 0.7 55.89897682946076 16.588382218208945 30.321453307033867 -3 -4 1
1448 483 2 -0.35 54.99921186923437 16.025485379203097 29.853297173904338 -3 -4 1
1419 473 2 -0.35 62.90024080615016 5.079338122714393 32.72907219795075 2 -4 1
869 290 2 -0.35 52.47351301403343 2.6886202933208256 29.767657465993935 -3 0 4
1417 473 1 0.7 62.52512344932135 5.601072594091308 31.763318549247543 2 -4 1
868 290 1 0.7 52.43193817660025 2.4871778473235375 30.909275823346515 -3 0 4
1418 473 2 -0.35 62.15000609249254 6.122807065468223 30.797564900544337 2 -4 1
870 290 2 -0.35 52.390363339167074 2.2857354013262534 32.050894180699096 -3 0 4
606 202 2 -0.35 51.04814604948749 11.326721041147476 43.43148217647264 -5 -5 3
1294 432 1 0.7 82.83228402894999 12.06241054588226 37.34062823068466 6 -5 3
1295 432 2 -0.35 82.72714018471996 11.005400000451653 37.806754263932156 6 -5 3
1296 432 2 -0.35 82.93742787318001 13.119421091312867 36.87450219743716 6 -5 3
1221 407 2 -0.35 90.00428508444138 9.484177388907904 35.13879380438876 0 2 7
1219 407 1 0.7 89.75766138672142 8.852692098132206 36.08007117012912 0 2 7
1220 407 2 -0.35 89.51103768900148 8.221206807356507 37.02134853586948 0 2 7
107 36 2 -0.35 127.25802828947458 2.773762100549124 22.203852450419564 -2 -1 -5
108 36 2 -0.35 126.6070007469303 4.840661509392984 23.03239935468765 -2 -1 -5
106 36 1 0.7 126.93251451820244 3.807211804971054 22.618125902553608 -2 -1 -5
1021 341 1 0.7 21.32864742250908 31.408635449998474 22.132476988594288 6 -1 2
136 46 1 0.7 5.708843069025723 38.68872513268344 31.62330550769703 -3 5 3
138 46 2 -0.35 6.7117278310637705 38.1097530306495 31.555383058251472 -3 5 3
137 46 2 -0.35 4.705958306987675 39.267697234717374 31.691227957142587 -3 5 3
14 5 2 -0.35 5.7342170458051935 41.508206207979484 25.63346446023212 -6 2 -2
231 77 2 -0.35 18.441674842866412 26.73027599419807 42.31563069651038 -5 1 0
1023 341 2 -0.35 21.317110125784637 32.56816809073981 22.163314398331373 6 -1 2
881 294 2 -0.35 29.193133539494468 35.49236927016287 27.30554653223763 -3 0 -4
880 294 1 0.7 29.361524270938606 35.008847236952754 26.264657006416254 -3 0 -4
882 294 2 -0.35 29.52991500238274 34.52532520374264 25.223767480594876 -3 0 -4
601 201 1 0.7 33.740866954333534 35.297275603179706 37.34069865567525 -4 2 -3
603 201 2 -0.35 33.765294958532756 36.442530756137316 37.15795865667652 -4 2 -3
602 201 2 -0.35 33.716438950134304 34.152020450222096 37.523438654673974 -4 2 -3
146 49 2 -0.35 39.00846275410242 27.227837690780873 30.781602219291596 -5 1 1
145 49 1 0.7 38.7794334939919 26.100193695857865 30.92845118499191 -5 1 1
147 49 2 -0.35 38.55040423388139 24.972549700934852 31.075300150692225 -5 1 1
1035 345 2 -0.35 44.17972078040132 29.93995598607522 22.969316753688673 3 3 0
1034 345 2 -0.35 45.1797830045301 31.949483660083875 22.382738476509065 3 3 0
1033 345 1 0.7 44.67975189246571 30.944719823079545 22.676027615098867 3 3 0
1351 451 1 0.7 70.00269138052988 22.81080643944741 44.05557526999022 0 -3 2
1352 451 2 -0.35 71.0909598545008 22.573895992754178 44.37983622787076 0 -3 2
161 54 2 -0.35 83.24411945886608 27.468217299452316 33.52510551583503 2 3 4
160 54 1 0.7 82.15514948553364 27.864794679801385 33.57481244267662 2 3 4
162 54 2 -0.35 81.0661795122012 28.261372060150457 33.62451936951821 2 3 4
93 31 2 -0.35 89.51730857909929 23.894616101419324 22.415116757788365 1 -6 0
780 260 2 -0.35 88.00484545924449 38.08138704083082 38.03831968159239 0 8 0
846 282 2 -0.35 104.61016588942186 31.617414420195434 26.930213970099004 2 -2 6
844 282 1 0.7 104.10323478362257 32.52233287984528 26.410845665947516 2 -2 6
845 282 2 -0.35 103.59630367782327 33.42725133949512 25.891477361796028 2 -2 6
1398 466 2 -0.35 106.2697398056137 43.12377638906805 39.87782126880756 9 5 2
1396 466 1 0.7 105.12293844224862 43.03455021338547 39.72787020160041 9 5 2
1397 466 2 -0.35 103.97613707888355 42.9453240377029 39.57791913439326 9 5 2
778 260 1 0.7 88.61428149436014 38.74363228626241 37.30645975373433 0 8 0
779 260 2 -0.35 89.22371752947579 39.405877531693996 36.57459982587626 0 8 0
685 229 1 0.7 116.99195155090231 25.14661768729228 23.8475908681909 4 -1 -2
687 229 2 -0.35 116.74575711719832 26.159673963816648 24.356221659048725 4 -1 -2
686 229 2 -0.35 117.2381459846063 24.133561410767914 23.338960077333073 4 -1 -2
804 268 2 -0.35 2.903172127731331 53.722755313510916 34.75233352519417 -6 0 -4
802 268 1 0.7 3.3553217089098375 54.524372282664466 34.0462379289709 -6 0 -4
803 268 2 -0.35 3.8074712900883436 55.32598925181802 33.34014233274764 -6 0 -4
1478 493 2 -0.35 0.04044429295913965 58.99560494189686 40.80806975396823 1 1 3
1477 493 1 0.7 0.18250953076010903 58.378184900147 39.836365086770456 1 1 3
1371 457 2 -0.35 12.191213061488774 53.75334786060148 39.16426414102551 1 2 -1
1369 457 1 0.7 13.32605871817873 53.82811336744928 39.392596036472504 1 2 -1
1370 457 2 -0.35 14.46090437486868 53.90287887429709 39.62092793191951 1 2 -1
15 5 2 -0.35 4.434565518925627 42.87549095285126 24.282968871525604 -6 2 -2
13 5 1 0.7 5.08439128236541 42.19184858041537 24.95821666587886 -6 2 -2
462 154 2 -0.35 22.05093748975605 52.6480219703263 39.3546369661239 0 -3 -2
460 154 1 0.7 21.873897293886078 51.504258884428815 39.276773159478694 0 -3 -2
461 154 2 -0.35 21.696857098016107 50.36049579853134 39.19890935283349 0 -3 -2
1186 396 1 0.7 30.583650909957328 61.79306313235236 25.079325229092586 -2 5 5
1188 396 2 -0.35 30.40075653642943 61.56834722097814 26.202558244681324 -2 5 5
1187 396 2 -0.35 30.76654528348522 62.01777904372658 23.956092213503844 -2 5 5
254 85 2 -0.35 46.82002970231625 58.98332485961919 32.46817277646741 -1 -1 3
253 85 1 0.7 45.677924682976176 59.01698234273073 32.668330960483345 -1 -1 3
255 85 2 -0.35 44.535819663636104 59.050639825842275 32.86848914449928 -1 -1 3
1005 335 2 -0.35 50.920406875635265 52.508559415966495 39.712215276130884 0 3 0
1003 335 1 0.7 51.68253695947335 52.73322711178947 38.86706312310587 0 3 0
1004 335 2 -0.35 52.44466704331145 52.95789480761244 38.02191097008085 0 3 0
805 269 1 0.7 57.31494956065155 62.99043806972974 35.34980335864205 0 1 0
806 269 2 -0.35 56.19587260059056 62.83381562210145 35.08762752764599 0 1 0
807 269 2 -0.35 58.434026520712536 63.147060517358035 35.6119791896381 0 1 0
611 204 2 -0.35 63.156119928215 59.82350309173835 32.95910714622858 -6 -4 4
610 204 1 0.7 62.55794920062018 60.71744221335006 32.52475173012001 -6 -4 4
612 204 2 -0.35 61.95977847302535 61.61138133496176 32.090396314011436 -6 -4 4
488 163 2 -0.35 68.94682697704785 53.15497035414568 25.463498366548347 -9 2 -2
487 163 1 0.7 69.3617857690396 53.13172666173187 24.38050763172564 -9 2 -2
489 163 2 -0.35 69.77674456103135 53.108482969318054 23.29751689690293 -9 2 -2
476 159 2 -0.35 83.50232013709822 65.35136845552539 28.106776238256977 1 0 2
810 270 2 -0.35 71.3467085136128 54.86141743179578 30.315202213591345 -1 -1 -1
809 270 2 -0.35 69.03281988525028 55.00278501376328 30.40649636620483 -1 -1 -1
808 270 1 0.7 70.18976419943154 54.93210122277953 30.360849289898088 -1 -1 -1
1278 426 2 -0.35 78.7067245572467 45.57847316787333 23.416855474052866 1 1 5
1276 426 1 0.7 77.57422091490602 45.76868567895462 23.252981434889705 1 1 5
1277 426 2 -0.35 76.44171727256531 45.9588981900359 23.089107395726543 1 1 5
410 137 2 -0.35 85.10324342365051 61.35157639224107 34.01215262300258 1 0 -2
1388 463 2 -0.35 87.9899106893117 48.752866348435575 26.525218672029858 -3 -4 -6
411 137 2 -0.35 87.3912050394901 61.73014599296568 33.946451010729625 1 0 -2
1387 463 1 0.7 87.6950383871764 48.064481645092926 27.41109497583128 -3 -4 -6
1389 463 2 -0.35 87.40016608504109 47.376096941750276 28.296971279632697 -3 -4 -6
1439 480 2 -0.35 105.15285619538412 48.50597127855071 37.03492354610048 4 -1 -5
1438 480 1 0.7 106.04349642891577 48.854995142470656 36.378766311264506 4 -1 -5
1440 480 2 -0.35 106.93413666244743 49.2040190063906 35.72260907642854 4 -1 -5
954 318 2 -0.35 89.2644341203728 54.0454296508356 25.648860408581015 -2 2 2
953 318 2 -0.35 90.286920420222 55.88309294222515 26.628613129474108 -2 2 2
952 318 1 0.7 89.7756772702974 54.964261296530374 26.13873676902756 -2 2 2
823 275 1 0.7 106.01888364312077 64.15928287866446 27.2767407036554 2 0 5
824 275 2 -0.35 106.9085004123257 63.7391249248842 27.891272474864124 2 0 5
825 275 2 -0.35 105.12926687391584 64.5794408324447 26.662208932446674 2 0 5
409 137 1 0.7 86.2472242315703 61.54086119260338 33.979301816866105 1 0 -2
1479 493 2 -0.35 0.3245747685610785 57.760764858397145 38.86466041957269 1 1 3
402 134 2 -0.35 110.22702933962391 49.529359664916406 23.00512794029721 -1 -5 0
400 134 1 0.7 110.96847290253088 49.655512066634515 22.12198185127008 -1 -5 0
401 134 2 -0.35 111.70991646543784 49.781664468352616 21.238835762242942 -1 -5 0
1400 467 2 -0.35 112.28282671778028 62.0460895662794 22.958230110725623 3 6 10
1399 467 1 0.7 111.98266347457083 62.23613672832747 21.85397284739239 3 6 10