LAMMPS (29 Aug 2024 - Update 1)
  using 1 OpenMP thread(s) per MPI task
package gpu 1 gpuID 0
# GCMC for CO2 molecular fluid, rigid/small/nvt dynamics
# Rigid CO2 TraPPE model
# [Potoff and J.I. Siepmann, Vapor-liquid equilibria of
# mixtures containing alkanes, carbon dioxide and
# nitrogen AIChE J., 47,1676-1682 (2001)].

# global model settings

units           real
atom_style      full
boundary        p p p
pair_style      lj/cut/coul/long  12
pair_modify     mix arithmetic shift yes
kspace_style    pppm 1.0e-4
bond_style      harmonic
angle_style     harmonic
neigh_modify    one 4000

# box, start molecules on simple cubic lattice
region          mbox block 0 ${lbox} 0 ${lbox} 0 ${lbox} units box
region          mbox block 0 129 0 ${lbox} 0 ${lbox} units box
region          mbox block 0 129 0 129 0 ${lbox} units box
region          mbox block 0 129 0 129 0 129 units box
create_box      2 mbox                                       bond/types 1                                angle/types 1                               extra/bond/per/atom 2                       extra/angle/per/atom 1                      extra/special/per/atom 2
Created orthogonal box = (0 0 0) to (129 129 129)
  1 by 1 by 1 MPI processor grid
molecule        co2mol ../CO2.txt
Read molecule template co2mol:
# CO2 molecule file. TraPPE model.
  1 molecules
  0 fragments
  3 atoms with max type 2
  2 bonds with max type 1
  1 angles with max type 1
  0 dihedrals with max type 0
  0 impropers with max type 0
create_atoms   	0 random ${nmols} 34578 mbox mol co2mol 464563 overlap 1.2
create_atoms   	0 random 500 34578 mbox mol co2mol 464563 overlap 1.2
Created 1500 atoms
  using lattice units in orthogonal box = (0 0 0) to (129 129 129)
  create_atoms CPU = 0.014 seconds

# rigid CO2 TraPPE model

pair_coeff      1   1  0.053649   2.800
pair_coeff      2   2  0.156973   3.050
bond_coeff      1       0       1.16
angle_coeff     1       0       180

# masses

mass 1 12.0107
mass 2 15.9994

write_data init_conf.data  pair ij
System init for write_data ...
PPPM initialization ...
  using 12-bit tables for long-range coulomb (src/kspace.cpp:342)
  G vector (1/distance) = 0.16458777
  grid = 27 27 27
  stencil order = 5
  estimated absolute RMS force accuracy = 0.035513361
  estimated relative force accuracy = 0.00010694743
  using double precision FFTW3
  3d grid and FFT values/proc = 32768 19683
Generated 1 of 1 mixed pair_coeff terms from arithmetic mixing rule

# MD settings

group           co2 type 1 2
1500 atoms in group co2
velocity       	all create 300 54654
timestep        0.25

# rigid constraints with thermostat
fix             myrigidnvt co2 rigid/nvt molecule temp 300 300 $(100*dt)
fix             myrigidnvt co2 rigid/nvt molecule temp 300 300 25
  500 rigid bodies with 1500 atoms

thermo 1000
thermo_style custom step temp density press ke pe etotal


variable    mvol equal vol
variable    mden equal density
variable	mtmp equal temp
variable    mpre equal press

fix mydat all ave/time 1 4000 4000 v_mtmp v_mden v_mpre file statistics.dat ## every 1ps

run 4000000 ## 1ns

CITE-CITE-CITE-CITE-CITE-CITE-CITE-CITE-CITE-CITE-CITE-CITE-CITE

Your simulation uses code contributions which should be cited:

- GPU package (short-range, long-range and three-body potentials): doi:10.1016/j.cpc.2010.12.021, doi:10.1016/j.cpc.2011.10.012, doi:10.1016/j.cpc.2013.08.002, doi:10.1016/j.commatsci.2014.10.068, doi:10.1016/j.cpc.2016.10.020, doi:10.3233/APC200086

@Article{Brown11,
 author = {W. M. Brown and P. Wang and S. J. Plimpton and A. N. Tharrington},
 title = {Implementing Molecular Dynamics on Hybrid High Performance Computers---Short Range Forces},
 journal = {Comput.\ Phys.\ Commun.},
 year =    2011,
 volume =  182,
 pages =   {898--911},
 doi =     {10.1016/j.cpc.2010.12.021}
}

@Article{Brown12,
 author = {W. M. Brown and A. Kohlmeyer and S. J. Plimpton and A. N. Tharrington},
 title = {Implementing Molecular Dynamics on Hybrid High Performance Computers - Particle-Particle Particle-Mesh},
 journal = {Comput.\ Phys.\ Commun.},
 year =    2012,
 volume =  183,
 doi =     {10.1016/j.cpc.2011.10.012},
 pages =   {449--459}
}

@Article{Brown13,
 author = {W. M. Brown and Y. Masako},
 title = {Implementing Molecular Dynamics on Hybrid High Performance Computers---Three-Body Potentials},
 journal = {Comput.\ Phys.\ Commun.},
 year =    2013,
 volume =  184,
 pages =   {2785--2793},
 doi =     {10.1016/j.cpc.2013.08.002},
}

@Article{Trung15,
 author = {T. D. Nguyen and S. J. Plimpton},
 title = {Accelerating Dissipative Particle Dynamics Simulations for Soft Matter Systems},
 journal = {Comput.\ Mater.\ Sci.},
 year =    2015,
 doi =     {10.1016/j.commatsci.2014.10.068},
 volume =  100,
 pages =   {173--180}
}

@Article{Trung17,
 author = {T. D. Nguyen},
 title = {{GPU}-Accelerated {T}ersoff Potentials for Massively Parallel
    Molecular Dynamics Simulations},
 journal = {Comput.\ Phys.\ Commun.},
 year =    2017,
 doi =     {10.1016/j.cpc.2016.10.020},
 volume =  212,
 pages =   {113--122}
}

@inproceedings{Nikolskiy19,
 author = {V. Nikolskiy and V. Stegailov},
 title = {{GPU} Acceleration of Four-Site Water Models in {LAMMPS}},
 booktitle = {Proceedings of the International Conference on Parallel
    Computing (ParCo 2019), Prague, Czech Republic},
 doi =     {10.3233/APC200086},
 year =    2019
}

CITE-CITE-CITE-CITE-CITE-CITE-CITE-CITE-CITE-CITE-CITE-CITE-CITE

PPPM initialization ...
  using 12-bit tables for long-range coulomb (src/kspace.cpp:342)
  G vector (1/distance) = 0.16458777
  grid = 27 27 27
  stencil order = 5
  estimated absolute RMS force accuracy = 0.035513361
  estimated relative force accuracy = 0.00010694743
  using double precision FFTW3
  3d grid and FFT values/proc = 32768 19683
Generated 1 of 1 mixed pair_coeff terms from arithmetic mixing rule
Per MPI rank memory allocation (min/avg/max) = 10.39 | 10.39 | 10.39 Mbytes
   Step          Temp         Density         Press          KinEng         PotEng         TotEng    
         0   307.41471      0.017021443   -198.99125      762.70438      56141.898      56904.602    
      1000   304.27087      0.017021443    12.252234      754.90442     -20.421771      734.48265    
      2000   305.12013      0.017021443    15.15663       757.01145     -18.969647      738.0418     
      3000   297.65392      0.017021443    14.38593       738.48759     -34.314708      704.17288    
      4000   313.8128       0.017021443    6.8425591      778.57821     -40.722678      737.85554    
      5000   312.42757      0.017021443    9.7619919      775.14142     -44.277057      730.86436    
      6000   295.60583      0.017021443    10.439651      733.40621     -46.739469      686.66674    
      7000   286.42295      0.017021443    8.7348377      710.62322     -50.764831      659.85839    
      8000   312.87004      0.017021443    7.6499236      776.2392      -57.628762      718.61044    
      9000   313.42301      0.017021443    12.67421       777.61112     -59.1518        718.45932    
     10000   316.85052      0.017021443    10.430442      786.11487     -67.014705      719.10016    
     11000   298.36266      0.017021443    8.6375413      740.24599     -72.598053      667.64794    
     12000   286.5095       0.017021443    8.1851381      710.83797     -66.914139      643.92384    
     13000   301.30031      0.017021443    8.3219654      747.53437     -66.745017      680.78935    
     14000   299.13352      0.017021443    10.76679       742.15851     -70.387625      671.77088    
     15000   299.12556      0.017021443    8.7312346      742.13876     -76.67845       665.46031    
     16000   304.70701      0.017021443    4.0068076      755.98648     -76.966104      679.02038    
     17000   310.85969      0.017021443    10.440245      771.25145     -74.956617      696.29483    
     18000   287.31926      0.017021443    7.8638423      712.847       -85.990683      626.85632    
     19000   302.84711      0.017021443    9.3372247      751.37202     -87.395907      663.97611    
     20000   313.45719      0.017021443    8.7649097      777.69594     -86.290188      691.40575    
     21000   290.27094      0.017021443    12.582807      720.17021     -89.340877      630.82934    
     22000   298.24628      0.017021443    9.0680525      739.95724     -78.521809      661.43543    
     23000   306.33101      0.017021443    8.1814751      760.01569     -85.098014      674.91767    
     24000   301.91953      0.017021443    15.497128      749.07068     -89.791177      659.2795     
     25000   318.26862      0.017021443    15.801351      789.63323     -99.535788      690.09744    
     26000   311.17333      0.017021443    4.3819815      772.02961     -99.89958       672.13003    
     27000   303.77046      0.017021443    9.1203615      753.66287     -102.32566      651.33721    
     28000   294.21965      0.017021443    9.2357401      729.96706     -103.9735       625.99355    
     29000   301.78877      0.017021443    12.433897      748.74624     -95.675113      653.07113    
     30000   299.23954      0.017021443    9.3930026      742.42154     -98.056819      644.36472    
     31000   305.04777      0.017021443    8.6549305      756.83193     -105.04538      651.78655    
     32000   312.67567      0.017021443    7.4395148      775.75695     -110.72046      665.03649    
     33000   299.42284      0.017021443    4.4244312      742.87632     -112.91033      629.96599    
     34000   282.77237      0.017021443    0.61788766     701.56603     -114.73177      586.83427    
     35000   303.9305       0.017021443    13.274791      754.05994     -117.04125      637.01869    
     36000   318.46998      0.017021443    14.025618      790.1328      -118.9084       671.2244     
     37000   292.45871      0.017021443    6.0846557      725.59812     -120.56822      605.02991    
     38000   280.99319      0.017021443   -8.8052018      697.15185     -118.51566      578.63619    
     39000   296.11772      0.017021443    9.9903526      734.67622     -114.46755      620.20867    
     40000   305.29775      0.017021443    9.7020662      757.45214     -122.45385      634.9983     
     41000   312.0127       0.017021443    9.316274       774.11211     -126.2157       647.89641    
     42000   297.44271      0.017021443    11.149046      737.96355     -121.26501      616.69855    
     43000   306.9742       0.017021443    1.747856       761.61145     -126.74365      634.8678     
     44000   304.57872      0.017021443   -0.21989442     755.66821     -124.94303      630.72518    
     45000   281.46364      0.017021443    9.7775544      698.31905     -120.98013      577.33892    
     46000   302.3296       0.017021443    9.4439922      750.08807     -124.03706      626.05101    
     47000   310.46522      0.017021443    11.846801      770.27278     -129.11194      641.16084    
     48000   287.61067      0.017021443    6.8843633      713.56999     -124.39488      589.17511    
     49000   300.55799      0.017021443    11.478123      745.69266     -130.58634      615.10632    
     50000   300.87338      0.017021443    12.59195       746.47515     -129.81279      616.66236    
     51000   296.90758      0.017021443    4.7973364      736.63589     -128.60659      608.0293     
     52000   293.63748      0.017021443    6.9760952      728.52269     -130.73245      597.79024    
     53000   297.88081      0.017021443    11.330281      739.0505      -119.17814      619.87236    
     54000   298.64656      0.017021443    7.6351001      740.95035     -127.48431      613.46605    
     55000   301.11663      0.017021443    8.8043729      747.07866     -128.50363      618.57504    
     56000   288.70866      0.017021443    9.9700226      716.29415     -130.45736      585.83679    
     57000   301.44625      0.017021443    8.3562141      747.89646     -128.21575      619.68071    
     58000   310.28278      0.017021443    11.522912      769.82014     -126.24805      643.57209    
     59000   299.18192      0.017021443    19.071786      742.2786      -124.97833      617.30027    
     60000   294.24727      0.017021443    8.5699606      730.03559     -119.21791      610.81768    
     61000   297.03238      0.017021443    7.1530103      736.94552     -121.22333      615.72219    
     62000   303.49286      0.017021443    9.6894984      752.97415     -129.45361      623.52054    
     63000   309.23955      0.017021443    9.0220967      767.23185     -131.5604       635.67145    
     64000   295.21635      0.017021443    8.6673954      732.4399      -129.71676      602.72314    
     65000   293.1121       0.017021443    8.0113866      727.21921     -129.41239      597.80682    
     66000   306.05974      0.017021443    9.2980962      759.34265     -134.73665      624.606      
     67000   308.58342      0.017021443    11.546276      765.60398     -138.21012      627.39386    
     68000   295.08957      0.017021443    7.4934749      732.12536     -132.63832      599.48704    
     69000   298.27182      0.017021443    8.4658473      740.0206      -126.50021      613.52039    
     70000   306.91503      0.017021443    8.5837464      761.46464     -133.55793      627.90672    
     71000   295.43368      0.017021443    6.9612529      732.9791      -137.49579      595.48332    
     72000   300.01431      0.017021443    8.2862398      744.34377     -137.04372      607.30005    
     73000   302.83218      0.017021443    9.6765551      751.33498     -148.89249      602.44249    
     74000   290.05969      0.017021443    5.7053866      719.64608     -146.32911      573.31696    
     75000   297.08322      0.017021443    9.6361579      737.07167     -143.42801      593.64366    
     76000   309.05212      0.017021443    9.0538066      766.76684     -147.47918      619.28765    
     77000   289.9014       0.017021443    4.5986467      719.25337     -142.24602      577.00735    
     78000   293.02181      0.017021443    8.826718       726.99519     -135.73157      591.26362    
     79000   309.98889      0.017021443    7.907892       769.09098     -148.25465      620.83634    
     80000   304.64636      0.017021443    11.609979      755.83601     -149.84765      605.98836    
     81000   292.05818      0.017021443    7.4234752      724.6044      -143.76123      580.84318    
     82000   295.02814      0.017021443    5.018374       731.97294     -149.45163      582.5213     
     83000   298.25611      0.017021443    8.8519973      739.98164     -142.3883       597.59334    
     84000   307.81005      0.017021443    12.904158      763.68521     -143.65381      620.0314     
     85000   295.92481      0.017021443    11.048575      734.19761     -146.13496      588.06265    
     86000   295.45061      0.017021443    7.011196       733.02111     -149.15362      583.86749    
     87000   309.90492      0.017021443    2.2077481      768.88265     -147.18259      621.70007    
     88000   305.56637      0.017021443    10.877964      758.11858     -146.83855      611.28003    
     89000   294.78307      0.017021443    10.927615      731.36491     -153.69623      577.66868    
     90000   294.26451      0.017021443    6.8405139      730.07837     -151.40048      578.67789    
     91000   293.70485      0.017021443    8.1569624      728.68984     -153.78144      574.9084     
     92000   306.43024      0.017021443    9.2011078      760.26186     -147.08024      613.18162    
     93000   306.26555      0.017021443    17.322927      759.85328     -153.00422      606.84906    
     94000   284.55062      0.017021443    6.9608644      705.97794     -146.48306      559.49488    
     95000   311.5304       0.017021443    7.6746947      772.91552     -152.59343      620.32209    
     96000   312.66935      0.017021443    8.7252068      775.74127     -150.67341      625.06786    
     97000   295.47958      0.017021443    9.5211597      733.09299     -152.1827       580.91028    
     98000   285.33618      0.017021443   -0.79383982     707.92694     -156.97375      550.95318    
     99000   304.98523      0.017021443    8.8091459      756.67676     -154.12683      602.54993    
    100000   313.7602       0.017021443    9.0686888      778.4477      -153.0957       625.352      
    101000   298.70028      0.017021443    8.0598423      741.08364     -152.28266      588.80097    
    102000   296.47126      0.017021443    6.8820619      735.55336     -147.8896       587.66377    
    103000   293.01794      0.017021443    7.5544247      726.98557     -148.09419      578.89138    
    104000   301.05337      0.017021443    9.388571       746.92171     -150.33658      596.58513    
    105000   306.99491      0.017021443    9.226916       761.66283     -144.94462      616.71821    
    106000   307.03801      0.017021443    10.542966      761.76976     -142.97326      618.79651    
    107000   309.72785      0.017021443    2.1831305      768.44333     -137.09525      631.34808    
    108000   289.03243      0.017021443    6.8811158      717.09744     -134.65623      582.44121    
    109000   303.03405      0.017021443    8.4359249      751.83583     -137.82966      614.00617    
    110000   302.75107      0.017021443    8.5275864      751.13376     -141.98063      609.15313    
    111000   295.27759      0.017021443    8.2179779      732.59183     -138.68721      593.90462    
    112000   296.29229      0.017021443    10.63179       735.10933     -136.30509      598.80424    
    113000   307.55382      0.017021443    10.425111      763.04952     -136.02752      627.022      
    114000   305.4451       0.017021443    6.2640911      757.8177      -139.78687      618.03084    
    115000   283.29813      0.017021443    7.258783       702.87048     -138.56606      564.30442    
    116000   301.00977      0.017021443    8.9752754      746.81353     -135.20504      611.60849    
    117000   304.7954       0.017021443    6.3138856      756.20579     -139.40619      616.79959    
    118000   302.69344      0.017021443    1.8102235      750.99076     -135.90668      615.08408    
    119000   285.26838      0.017021443    8.248334       707.75871     -130.08842      577.67029    
    120000   293.99425      0.017021443    12.193862      729.40783     -131.97546      597.43237    
    121000   312.72083      0.017021443    11.891148      775.86899     -131.73324      644.13575    
    122000   298.19809      0.017021443    6.5016142      739.83769     -136.3816       603.45609    
    123000   284.56392      0.017021443    5.4767388      706.01093     -145.12135      560.88958    
    124000   284.70584      0.017021443    18.382788      706.36305     -142.51293      563.85012    
    125000   315.4759       0.017021443    9.3330995      782.70441     -144.30075      638.40366    
    126000   295.68821      0.017021443    4.6105663      733.61061     -145.99891      587.6117     
    127000   296.42012      0.017021443    16.716844      735.42648     -143.19282      592.23366    
    128000   317.02985      0.017021443    6.1240551      786.5598      -141.23784      645.32196    
    129000   294.985        0.017021443   -1.7655609      731.86593     -141.58523      590.2807     
    130000   290.58768      0.017021443    8.8373202      720.95605     -131.95678      588.99927    
    131000   299.12453      0.017021443    10.761073      742.1362      -138.05045      604.08575    
    132000   305.98009      0.017021443    14.429752      759.14504     -137.61644      621.52859    
    133000   307.76814      0.017021443    9.7386838      763.58125     -138.34834      625.23291    
    134000   294.13292      0.017021443    6.5539899      729.75189     -134.32978      595.42211    
    135000   303.31824      0.017021443    8.256575       752.54091     -135.7006       616.84031    
    136000   301.35931      0.017021443    11.811922      747.68075     -136.69151      610.98924    
    137000   302.09416      0.017021443    6.4855415      749.50393     -132.48537      617.01856    
    138000   291.98879      0.017021443    2.045152       724.43225     -141.50548      582.92677    
    139000   304.50495      0.017021443    9.0602181      755.48518     -139.79242      615.69276    
    140000   303.27781      0.017021443    7.9727605      752.44061     -126.9328       625.50781    
    141000   286.80672      0.017021443    10.688763      711.57538     -136.8137       574.76168    
    142000   300.79761      0.017021443    10.521738      746.28717     -140.56604      605.72114    
    143000   297.87271      0.017021443    8.6066771      739.0304      -140.86285      598.16755    
    144000   308.11829      0.017021443    4.2425425      764.44998     -135.84592      628.60406    
    145000   309.68053      0.017021443    8.8948475      768.32593     -128.5109       639.81503    
    146000   298.69811      0.017021443    7.9341978      741.07825     -131.74561      609.33264    
    147000   289.68082      0.017021443    8.582647       718.7061      -132.02093      586.68517    
    148000   316.02568      0.017021443    5.2573756      784.06842     -129.75451      654.31391    
    149000   314.73194      0.017021443    12.860799      780.85861     -126.60814      654.25047    
    150000   295.31081      0.017021443    9.1659742      732.67425     -130.37363      602.30062    
    151000   287.72433      0.017021443    7.941285       713.85198     -127.7848       586.06719    
    152000   310.31389      0.017021443    8.3553695      769.89732     -127.56744      642.32988    
    153000   312.15542      0.017021443    12.482485      774.46621     -125.54717      648.91904    
    154000   287.56881      0.017021443    7.6071129      713.46614     -127.1103       586.35584    
    155000   305.56651      0.017021443    7.9360211      758.11894     -130.77534      627.3436     
    156000   311.97033      0.017021443    8.9643401      774.007       -125.54348      648.46352    
    157000   297.06777      0.017021443    8.2452738      737.03334     -130.05486      606.97848    
    158000   298.71834      0.017021443    6.1106022      741.12843     -128.77668      612.35175    
    159000   303.7363       0.017021443    5.4044244      753.57812     -121.47736      632.10076    
    160000   313.20767      0.017021443    10.500152      777.07686     -121.40262      655.67424    
    161000   301.23354      0.017021443    7.6390405      747.36872     -125.48355      621.88517    
    162000   290.19511      0.017021443    6.9364998      719.98206     -129.95978      590.02228    
    163000   294.53544      0.017021443    9.0406         730.75054     -130.72176      600.02878    
    164000   291.32176      0.017021443    7.4348489      722.77733     -133.52667      589.25065    
    165000   304.29114      0.017021443    6.5631247      754.95471     -129.19506      625.75965    
    166000   309.65318      0.017021443    9.3224531      768.25807     -130.94596      637.31211    
    167000   284.52112      0.017021443    7.5251969      705.90475     -128.54522      577.35953    
    168000   300.03265      0.017021443    7.0297384      744.38927     -122.98473      621.40454    
    169000   304.45538      0.017021443    6.0161964      755.3622      -130.30746      625.05474    
    170000   298.26071      0.017021443    15.247448      739.99305     -123.35011      616.64294    
    171000   284.44145      0.017021443    11.602908      705.70707     -121.49236      584.21472    
    172000   307.05401      0.017021443    5.8955419      761.80947     -124.16208      637.64739    
    173000   312.50926      0.017021443    9.9474732      775.34409     -120.7231       654.62099    
    174000   290.60176      0.017021443    7.9818294      720.99098     -125.40499      595.586      
    175000   305.75426      0.017021443    8.3975475      758.58474     -121.24276      637.34198    
    176000   308.36442      0.017021443    8.6532246      765.06063     -128.54802      636.51261    
    177000   304.64638      0.017021443    8.2805886      755.83607     -129.89122      625.94485    
    178000   306.948        0.017021443    7.8119417      761.54646     -123.2755       638.27096    
    179000   301.674        0.017021443    9.026204       748.46152     -116.87086      631.59066    
    180000   284.64179      0.017021443    8.184444       706.20413     -113.92857      592.27556    
    181000   313.13434      0.017021443    9.1150336      776.89493     -117.52889      659.36604    
    182000   294.21055      0.017021443    5.1709797      729.94448     -119.28145      610.66303    
    183000   279.81532      0.017021443    10.377714      694.22951     -111.45887      582.77065    
    184000   299.92902      0.017021443    7.3907797      744.13217     -122.29753      621.83464    
    185000   298.03378      0.017021443    7.6154137      739.43001     -120.59117      618.83884    
    186000   308.3945       0.017021443    17.892493      765.13526     -120.12609      645.00918    
    187000   302.72872      0.017021443    10.715649      751.0783      -120.92082      630.15748    
    188000   302.98866      0.017021443   -1.9313855      751.72323     -117.16987      634.55336    
    189000   300.81809      0.017021443    10.756222      746.33798     -121.84969      624.48828    
    190000   294.84293      0.017021443    13.624947      731.51343     -129.45856      602.05487    
    191000   301.83186      0.017021443   -9.0584712      748.85317     -122.80713      626.04604    
    192000   309.94871      0.017021443   -0.96075144     768.99128     -124.85512      644.13616    
    193000   300.36284      0.017021443    14.917584      745.20849     -122.0716       623.13689    
    194000   296.82423      0.017021443    8.9386684      736.4291      -120.16829      616.26081    
    195000   302.63632      0.017021443    8.1098575      750.84906     -116.362        634.48706    
    196000   294.82992      0.017021443    4.4627572      731.48116     -114.09079      617.39038    
    197000   308.58094      0.017021443    15.427495      765.59782     -112.6961       652.90172    
    198000   296.57241      0.017021443    9.8773874      735.80431     -119.45509      616.34922    
    199000   290.2641       0.017021443   -1.0096079      720.15324     -114.40687      605.74637    
    200000   315.60619      0.017021443    4.6240171      783.02765     -117.05337      665.97428    
    201000   308.20159      0.017021443    10.288964      764.65665     -122.40908      642.24757    
    202000   292.37707      0.017021443    17.914721      725.39557     -113.81584      611.57973    
    203000   288.38763      0.017021443    9.5822781      715.49765     -123.98435      591.51329    
    204000   311.56537      0.017021443   -1.5691008      773.00228     -127.43785      645.56443    
    205000   304.11071      0.017021443   -3.5027189      754.50706     -128.63412      625.87294    
    206000   308.38422      0.017021443    7.3129604      765.10975     -117.50344      647.6063     
    207000   301.11258      0.017021443    18.025967      747.06861     -116.48768      630.58093    
    208000   296.8918       0.017021443    19.453306      736.59675     -115.46961      621.12714    
    209000   296.5527       0.017021443    2.6808114      735.75544     -115.4812       620.27423    
    210000   308.54489      0.017021443    2.4897189      765.50838     -120.99156      644.51682    
    211000   291.84266      0.017021443    8.3210015      724.06968     -111.8393       612.23037    
    212000   290.06034      0.017021443    11.995521      719.64769     -109.98606      609.66163    
    213000   303.5258       0.017021443    7.6598116      753.05588     -108.94772      644.10816    
    214000   298.30768      0.017021443    8.4630974      740.10957     -114.94289      625.16668    
    215000   298.39868      0.017021443    10.067653      740.33534     -106.32363      634.01171    
    216000   312.07268      0.017021443    7.7640641      774.26093     -104.88711      669.37382    
    217000   309.80658      0.017021443    8.1372668      768.63867     -109.91141      658.72726    
    218000   297.77087      0.017021443    7.5154839      738.77773     -109.55831      629.21942    
    219000   303.32514      0.017021443    14.90392       752.55803     -110.90437      641.65365    
    220000   295.70758      0.017021443    6.4563572      733.65866     -114.15615      619.50251    
    221000   301.73177      0.017021443    0.89010836     748.60485     -109.07298      639.53187    
    222000   301.46796      0.017021443    2.9089595      747.95032     -103.71964      644.23068    
    223000   300.42807      0.017021443    9.817258       745.37032     -97.198345      648.17198    
    224000   297.19355      0.017021443    7.9148642      737.34538     -104.0565       633.28888    
    225000   305.68801      0.017021443    5.2566332      758.42038     -97.563265      660.85712    
    226000   299.34594      0.017021443    3.3250048      742.68552     -101.46636      641.21917    
    227000   303.06531      0.017021443    25.994106      751.91338     -106.01046      645.90292    
    228000   293.87282      0.017021443    14.482344      729.10656     -101.26808      627.83848    
    229000   293.52547      0.017021443   -6.9934238      728.24478     -96.733944      631.51083    
    230000   311.40661      0.017021443    11.119327      772.60838     -106.3293       666.27908    
    231000   289.8991       0.017021443    7.3609287      719.24766     -103.5225       615.72516    
    232000   290.16762      0.017021443    2.3971581      719.91386     -102.4566       617.45725    
    233000   305.57813      0.017021443    3.3373214      758.14777     -98.48988       659.65789    
    234000   306.16925      0.017021443    9.2219439      759.61434     -94.674029      664.94031    
    235000   291.90701      0.017021443    8.9039193      724.22934     -91.588751      632.64059    
    236000   291.77728      0.017021443    7.0416452      723.90747     -91.543345      632.36413    
    237000   300.82925      0.017021443    8.556348       746.36566     -90.62537       655.74029    
    238000   317.47689      0.017021443    8.6010082      787.66893     -91.817732      695.85119    
    239000   303.94798      0.017021443    6.507751       754.10331     -97.063126      657.04018    
    240000   295.8968       0.017021443    8.5022444      734.12812     -92.659115      641.46901    
    241000   299.11014      0.017021443    9.9756231      742.1005      -96.782048      645.31846    
    242000   310.04911      0.017021443    9.7385941      769.24039     -92.393244      676.84714    
    243000   304.80732      0.017021443    9.8569005      756.23535     -89.391054      666.8443     
    244000   288.35052      0.017021443    7.4585521      715.40558     -93.793147      621.61243    
    245000   301.91226      0.017021443    7.9957661      749.05263     -91.538         657.51463    
    246000   320.77273      0.017021443    8.2590503      795.84598     -96.682214      699.16376    
    247000   298.25577      0.017021443    8.519696       739.9808      -92.224228      647.75657    
    248000   302.12853      0.017021443    7.9007508      749.58921     -91.035407      658.5538     
    249000   301.07899      0.017021443    8.6550631      746.98528     -96.56981       650.41547    
    250000   301.10322      0.017021443    8.39148        747.04538     -94.045977      652.9994     
    251000   298.3324       0.017021443    4.7719622      740.17091     -91.196172      648.97473    
    252000   300.5349       0.017021443    8.3594954      745.63538     -93.248917      652.38646    
    253000   295.32785      0.017021443    7.5086253      732.71653     -87.498743      645.21779    
    254000   300.68093      0.017021443    9.3040184      745.99769     -89.874761      656.12293    
    255000   297.61003      0.017021443    8.4462789      738.37868     -86.506519      651.87216    
    256000   301.5794       0.017021443    7.5145093      748.22681     -84.225367      664.00144    
    257000   281.72308      0.017021443    12.281728      698.96274     -86.032429      612.93031    
    258000   294.7025       0.017021443    11.063677      731.16504     -88.089554      643.07548    
    259000   307.66769      0.017021443    12.416399      763.33203     -84.85228       678.47974    
    260000   308.30635      0.017021443    5.1849754      764.91655     -83.780034      681.13652    
    261000   303.61069      0.017021443    6.3268316      753.26649     -78.431404      674.83509    
    262000   307.7229       0.017021443    10.117973      763.46899     -74.658485      688.81051    
    263000   312.62842      0.017021443    8.3107925      775.63973     -79.395083      696.24465    
    264000   301.0144       0.017021443    5.9078983      746.82503     -81.085007      665.74002    
    265000   297.25782      0.017021443    10.254013      737.50485     -81.428753      656.0761     
    266000   304.16739      0.017021443    10.166937      754.64768     -83.646195      671.00148    
    267000   293.61309      0.017021443    5.7871349      728.46217     -83.855861      644.6063     
    268000   299.62336      0.017021443    8.5807884      743.37382     -85.709402      657.66442    
    269000   309.19635      0.017021443    11.512477      767.12466     -83.470258      683.65441    
    270000   298.06297      0.017021443    6.1461878      739.50246     -86.120753      653.3817     
    271000   295.00533      0.017021443    7.7129927      731.91636     -89.88329       642.03307    
    272000   306.73727      0.017021443    10.018385      761.02362     -83.231346      677.79227    
    273000   304.25727      0.017021443    8.385437       754.87066     -84.825035      670.04563    
    274000   287.40089      0.017021443    4.5292931      713.04952     -91.179099      621.87042    
    275000   291.48176      0.017021443    11.013632      723.17428     -88.406308      634.76797    
    276000   313.5404       0.017021443    10.64806       777.90237     -95.867283      682.03508    
    277000   307.18626      0.017021443   -0.23070631     762.13759     -90.197367      671.94022    
    278000   284.66925      0.017021443    7.4634711      706.27225     -91.028445      615.24381    
    279000   299.85787      0.017021443    15.86771       743.95565     -92.130607      651.82505    
    280000   310.40621      0.017021443    8.9749053      770.12636     -91.181595      678.94476    
    281000   291.49008      0.017021443    5.8265958      723.19492     -86.623399      636.57152    
    282000   297.12261      0.017021443    4.1863798      737.1694      -89.592101      647.57729    
    283000   295.82818      0.017021443    7.2142753      733.95786     -82.360783      651.59708    
    284000   294.779        0.017021443    14.464984      731.35482     -74.998494      656.35633    
    285000   305.42176      0.017021443    6.8720526      757.7598      -82.076057      675.68375    
    286000   297.14897      0.017021443    8.2445787      737.23477     -84.715088      652.51969    
    287000   297.3878       0.017021443    10.132136      737.82732     -90.333969      647.49335    
    288000   300.84431      0.017021443    8.4282556      746.40302     -90.394767      656.00825    
    289000   305.53745      0.017021443    9.7324675      758.04685     -78.270625      679.77622    
    290000   297.35899      0.017021443    9.0787874      737.75585     -81.451568      656.30428    
    291000   301.51908      0.017021443    11.446343      748.07716     -78.773309      669.30385    
    292000   308.55495      0.017021443    3.2953816      765.53333     -77.772116      687.76121    
    293000   293.79736      0.017021443    8.2067716      728.91934     -74.475551      654.44379    
    294000   283.27108      0.017021443    6.0660655      702.80335     -74.780562      628.02279    
    295000   309.73749      0.017021443    4.2134484      768.46724     -72.238582      696.22866    
    296000   302.88773      0.017021443    9.8211226      751.47281     -78.711834      672.76098    
    297000   303.18004      0.017021443    8.6259227      752.19804     -74.528953      677.66908    
    298000   286.91846      0.017021443    9.0613858      711.85262     -81.061208      630.79141    
    299000   298.35798      0.017021443    7.6939594      740.23438     -80.414367      659.82002    
    300000   310.48647      0.017021443    6.0344527      770.32548     -82.999696      687.32579    
    301000   302.9286       0.017021443    9.0305602      751.57421     -81.221371      670.35284    
    302000   295.11176      0.017021443    10.577363      732.18042     -78.911288      653.26914    
    303000   287.11772      0.017021443    16.398495      712.34697     -77.279865      635.0671     
    304000   306.67842      0.017021443    7.499306       760.8776      -73.607437      687.27017    
    305000   305.8004       0.017021443    4.9168468      758.69922     -80.385697      678.31352    
    306000   292.26751      0.017021443    11.038842      725.12375     -79.565659      645.55809    
    307000   298.65873      0.017021443    8.9327859      740.98055     -82.904767      658.07578    
    308000   299.86182      0.017021443    7.9221188      743.96544     -79.167045      664.7984     
    309000   291.64551      0.017021443    7.9731263      723.58054     -80.259923      643.32062    
    310000   311.13675      0.017021443    13.245193      771.93885     -75.432362      696.50649    
    311000   303.10735      0.017021443    11.640634      752.0177      -70.157294      681.8604     
    312000   293.96274      0.017021443    3.8157732      729.32966     -77.319416      652.01024    
    313000   301.87897      0.017021443    8.8824693      748.97004     -72.823778      676.14626    
    314000   299.54206      0.017021443    12.552346      743.1721      -76.421219      666.75089    
    315000   296.80044      0.017021443    6.8051853      736.37008     -72.429077      663.941      
    316000   309.51193      0.017021443    7.5407552      767.90763     -70.291126      697.6165     
    317000   303.07247      0.017021443    14.62142       751.93116     -67.973055      683.95811    
    318000   290.37613      0.017021443    9.7802922      720.43117     -67.338524      653.09265    
    319000   310.14431      0.017021443    4.7601248      769.47658     -62.961137      706.51544    
    320000   302.88901      0.017021443    10.4082        751.47599     -65.985045      685.49094    
    321000   318.82462      0.017021443    10.04727       791.01266     -66.902685      724.10998    
    322000   299.31129      0.017021443    9.6360788      742.59957     -60.961316      681.63826    
    323000   299.09905      0.017021443    8.3931118      742.07298     -64.273136      677.79985    
    324000   302.73387      0.017021443    8.8152504      751.09109     -62.2386        688.85249    
    325000   307.95297      0.017021443    7.5685822      764.0398      -67.210239      696.82956    
    326000   278.81831      0.017021443    9.8136425      691.75591     -68.511529      623.24438    
    327000   303.56736      0.017021443    15.532118      753.15898     -66.241277      686.91771    
    328000   300.10546      0.017021443    7.5148102      744.56992     -68.4606        676.10932    
    329000   306.16972      0.017021443    4.9142077      759.61552     -69.693154      689.92237    
    330000   282.13689      0.017021443    6.8925935      699.9894      -66.994086      632.99531    
    331000   293.83283      0.017021443    9.8817871      729.00736     -65.856676      663.15068    
    332000   304.54022      0.017021443    7.4597288      755.57267     -71.82843       683.74424    
    333000   298.83537      0.017021443    8.1631635      741.4188      -68.088767      673.33003    
    334000   292.37023      0.017021443    9.2637044      725.3786      -69.626562      655.75204    
    335000   294.31304      0.017021443    16.634744      730.19877     -65.883721      664.31505    
    336000   314.85109      0.017021443    8.5209489      781.15424     -65.173824      715.98041    
    337000   291.41574      0.017021443    5.6465037      723.01049     -67.307214      655.70328    
    338000   289.00246      0.017021443    20.071766      717.02306     -63.762017      653.26105    
    339000   307.75207      0.017021443    8.1765304      763.54138     -65.359883      698.1815     
    340000   301.53618      0.017021443    6.145227       748.11958     -70.208237      677.91134    
    341000   294.23643      0.017021443    16.555562      730.0087      -71.393108      658.61559    
    342000   310.59012      0.017021443    2.7822232      770.58265     -63.320182      707.26247    
    343000   308.74971      0.017021443   -3.1285806      766.01655     -68.578341      697.4382     
    344000   294.59092      0.017021443    6.943749       730.88818     -65.871723      665.01646    
    345000   294.14063      0.017021443    12.355581      729.77102     -63.149978      666.62104    
    346000   295.7594       0.017021443    13.153705      733.78723     -63.530838      670.2564     
    347000   305.18309      0.017021443    4.1782674      757.16766     -61.024599      696.14306    
    348000   309.51755      0.017021443    4.1317065      767.92156     -62.664738      705.25683    
    349000   287.03695      0.017021443    16.398757      712.14658     -63.581334      648.56525    
    350000   296.46163      0.017021443    21.294494      735.52948     -60.634104      674.89538    
    351000   299.71606      0.017021443    8.1465659      743.60381     -57.32004       686.28376    
    352000   306.25157      0.017021443    6.0330936      759.81859     -57.431234      702.38735    
    353000   294.01928      0.017021443    2.6163131      729.46994     -61.906981      667.56296    
    354000   295.76889      0.017021443    17.769686      733.81078     -61.146965      672.66381    
    355000   306.11107      0.017021443    8.666217       759.47        -60.090429      699.37957    
    356000   301.26912      0.017021443   -5.8099176      747.45699     -55.905876      691.55112    
    357000   289.80321      0.017021443    6.1461584      719.00976     -62.40232       656.60744    
    358000   300.92507      0.017021443    12.634029      746.60339     -68.410787      678.1926     
    359000   321.91906      0.017021443    19.611146      798.69007     -61.886758      736.80331    
    360000   292.3902       0.017021443    0.99648276     725.42814     -61.711738      663.7164     
    361000   287.17409      0.017021443    8.1122005      712.48683     -58.332426      654.1544     
    362000   299.00727      0.017021443    15.015492      741.84527     -58.369442      683.47583    
    363000   311.62987      0.017021443    12.410703      773.16229     -56.391066      716.77123    
    364000   302.10539      0.017021443    2.2622423      749.53181     -59.70555       689.82626    
    365000   295.07013      0.017021443    11.425359      732.07713     -64.787609      667.28952    
    366000   306.7378       0.017021443    15.010374      761.02495     -58.916425      702.10852    
    367000   303.53749      0.017021443    2.2638066      753.08487     -57.538427      695.54644    
    368000   303.3432       0.017021443   -5.4971323      752.60283     -54.021613      698.58122    
    369000   306.82117      0.017021443    12.91296       761.23177     -51.343364      709.88841    
    370000   306.08644      0.017021443    13.35869       759.40889     -57.103598      702.30529    
    371000   299.44162      0.017021443    7.0001976      742.92292     -50.446714      692.4762     
    372000   293.73425      0.017021443    9.8956027      728.76276     -55.046176      673.71659    
    373000   319.25887      0.017021443    22.382567      792.09007     -53.408328      738.68174    
    374000   312.13491      0.017021443    14.057021      774.41532     -48.809883      725.60544    
    375000   301.96291      0.017021443    1.0051921      749.17831     -50.733496      698.44482    
    376000   294.20334      0.017021443    10.900785      729.9266      -52.383019      677.54359    
    377000   316.23572      0.017021443    7.8150035      784.58954     -49.299155      735.29039    
    378000   300.46546      0.017021443    8.4472666      745.4631      -44.901491      700.56161    
    379000   289.39951      0.017021443    11.232142      718.00817     -48.144391      669.86377    
    380000   314.23836      0.017021443    9.5521966      779.63403     -50.070039      729.56399    
    381000   311.81997      0.017021443    9.0047976      773.63395     -56.133334      717.50061    
    382000   296.07972      0.017021443    1.1195218      734.58194     -51.805788      682.77616    
    383000   290.32189      0.017021443    7.6996633      720.29661     -54.322733      665.97387    
    384000   301.2372       0.017021443    15.896539      747.37779     -49.993112      697.38468    
    385000   306.99748      0.017021443    2.6871098      761.6692      -45.824764      715.84444    
    386000   293.64131      0.017021443    5.8196886      728.5322      -41.981628      686.55057    
    387000   300.93148      0.017021443    12.553364      746.61929     -46.549386      700.0699     
    388000   302.92099      0.017021443    8.5760038      751.55533     -46.526177      705.02915    
    389000   295.55031      0.017021443    7.8130199      733.26847     -44.86901       688.39946    
    390000   314.24811      0.017021443    20.839347      779.65822     -44.60995       735.04827    
    391000   310.56078      0.017021443    11.86962       770.50987     -47.371897      723.13797    
    392000   285.15584      0.017021443    1.1119917      707.4795      -45.552558      661.92695    
    393000   293.56241      0.017021443    9.6251268      728.33643     -51.160539      677.17589    
    394000   315.96655      0.017021443    16.995473      783.92172     -46.505448      737.41627    
    395000   298.88795      0.017021443    2.1101173      741.54925     -44.38233       697.16692    
    396000   301.58012      0.017021443   -0.71753995     748.22859     -44.539141      703.68945    
    397000   294.97476      0.017021443    2.8599565      731.8405      -47.546916      684.29359    
    398000   293.47586      0.017021443    14.147106      728.1217      -48.322526      679.79917    
    399000   308.02273      0.017021443    9.72577        764.2129      -48.910383      715.30251    
    400000   309.0884       0.017021443    5.4489623      766.85683     -48.336988      718.51984    
    401000   288.27451      0.017021443    11.69092       715.217       -49.255063      665.96194    
    402000   299.71877      0.017021443    25.302479      743.61054     -43.967596      699.64294    
    403000   305.29083      0.017021443    4.9804759      757.43497     -46.406797      711.02818    
    404000   297.39253      0.017021443    8.4401693      737.83907     -45.710938      692.12813    
    405000   301.1121       0.017021443    15.961058      747.06743     -43.657267      703.41016    
    406000   301.52911      0.017021443    2.1793348      748.10204     -48.215244      699.88679    
    407000   299.28805      0.017021443    2.3544925      742.5419      -47.659999      694.8819     
    408000   298.50872      0.017021443    15.085281      740.60836     -47.85106       692.7573     
    409000   300.89571      0.017021443    12.88491       746.53054     -49.181612      697.34893    
    410000   298.23669      0.017021443    1.9339943      739.93344     -51.077261      688.85618    
    411000   297.41252      0.017021443    7.8994122      737.88866     -50.290838      687.59782    
    412000   285.93569      0.017021443    14.346295      709.41434     -50.208061      659.20628    
    413000   307.12721      0.017021443    19.104268      761.99106     -48.336605      713.65446    
    414000   301.86515      0.017021443    5.5715032      748.93575     -50.314079      698.62167    
    415000   302.09365      0.017021443    7.6155613      749.50268     -44.258447      705.24423    
    416000   289.2165       0.017021443    8.8112433      717.5541      -38.8619        678.6922     
    417000   288.46246      0.017021443    12.964638      715.68331     -43.995953      671.68736    
    418000   318.59302      0.017021443    8.0375351      790.43807     -48.005116      742.43295    
    419000   297.69092      0.017021443    7.5529958      738.57938     -44.680751      693.89863    
    420000   295.73548      0.017021443    8.685704       733.72787     -44.216589      689.51128    
    421000   303.04179      0.017021443    8.8235957      751.85502     -43.199062      708.65596    
    422000   307.99795      0.017021443    10.150234      764.15141     -42.242118      721.90929    
    423000   292.23856      0.017021443    9.8505265      725.05192     -51.122192      673.92973    
    424000   295.77162      0.017021443    7.1813422      733.81754     -47.612699      686.20485    
    425000   312.27078      0.017021443    7.9183889      774.75241     -43.731752      731.02065    
    426000   312.79885      0.017021443    11.049526      776.06258     -41.620593      734.44198    
    427000   290.84315      0.017021443    13.962421      721.58987     -42.27417       679.3157     
    428000   291.78079      0.017021443    11.642821      723.91619     -40.159609      683.75658    
    429000   301.28167      0.017021443    11.064841      747.48812     -39.227737      708.26038    
    430000   293.44241      0.017021443    0.78585899     728.03871     -32.83925       695.19946    
    431000   307.9038       0.017021443    0.6819601      763.91782     -32.555852      731.36197    
    432000   303.0964       0.017021443    6.2306569      751.99052     -33.322022      718.6685     
    433000   306.11156      0.017021443    17.909358      759.47123     -35.278093      724.19313    
    434000   293.47465      0.017021443    16.601732      728.11869     -38.803125      689.31556    
    435000   306.54814      0.017021443   -1.2050688      760.55439     -35.98944       724.56495    
    436000   305.14305      0.017021443    10.471394      757.06831     -35.245357      721.82296    
    437000   307.38936      0.017021443    14.034075      762.64146     -37.543881      725.09758    
    438000   287.42433      0.017021443    11.059049      713.1077      -40.966699      672.141      
    439000   306.83507      0.017021443    11.920688      761.26626     -40.191697      721.07456    
    440000   297.54734      0.017021443   -9.6443099      738.22315     -40.055547      698.1676     
    441000   300.17021      0.017021443    14.750647      744.73057     -41.743793      702.98677    
    442000   305.90458      0.017021443    18.16309       758.9577      -39.466262      719.49143    
    443000   301.87129      0.017021443    6.2326151      748.951       -42.70588       706.24512    
    444000   297.75948      0.017021443    7.5120169      738.74947     -44.840566      693.90891    
    445000   296.98577      0.017021443    16.963565      736.82989     -38.786853      698.04304    
    446000   302.94325      0.017021443    8.0294268      751.61056     -38.613947      712.99661    
    447000   312.97673      0.017021443    2.3742989      776.5039      -34.690556      741.81335    
    448000   302.67501      0.017021443    11.866352      750.94505     -39.568976      711.37607    
    449000   297.26119      0.017021443    18.27918       737.51321     -32.231343      705.28187    
    450000   303.81084      0.017021443    13.929034      753.76308     -34.996644      718.76643    
    451000   298.7364       0.017021443    7.4423144      741.17324     -35.813287      705.35996    
    452000   298.57527      0.017021443    6.7166011      740.77347     -34.36796       706.40551    
    453000   301.96484      0.017021443    12.536035      749.1831      -32.262385      716.92071    
    454000   311.50119      0.017021443    13.872206      772.84304     -36.958558      735.88448    
    455000   297.50059      0.017021443    11.667859      738.10716     -38.372369      699.73479    
    456000   276.56155      0.017021443    12.232942      686.15683     -37.661878      648.49496    
    457000   304.30035      0.017021443    3.1336152      754.97755     -35.737546      719.24001    
    458000   318.89379      0.017021443    13.466216      791.18427     -34.557355      756.62692    
    459000   302.76796      0.017021443    9.8869864      751.17566     -33.17589       717.99977    
    460000   297.77103      0.017021443    0.13519266     738.77814     -34.147574      704.63056    
    461000   296.06952      0.017021443    6.2306979      734.55664     -30.554462      704.00218    
    462000   306.69895      0.017021443    21.728589      760.92855     -34.903435      726.02512    
    463000   288.08351      0.017021443    16.28335       714.74312     -28.388764      686.35436    
    464000   290.59005      0.017021443    1.7017947      720.96191     -33.782913      687.179      
    465000   309.25529      0.017021443    6.381162       767.2709      -31.827942      735.44296    
    466000   301.84714      0.017021443    14.339031      748.89107     -36.730674      712.16039    
    467000   286.81471      0.017021443    14.949993      711.5952      -36.257168      675.33803    
    468000   299.23539      0.017021443    6.3993836      742.41126     -35.189336      707.22192    
    469000   305.26057      0.017021443    5.5314836      757.35989     -32.569306      724.79058    
    470000   289.04391      0.017021443    12.892644      717.12591     -35.236596      681.88932    
    471000   296.67743      0.017021443    11.329602      736.06488     -29.732533      706.33235    
    472000   295.51704      0.017021443    6.2837295      733.18591     -29.565657      703.62025    
    473000   311.37073      0.017021443    7.3679992      772.51935     -28.162764      744.35659    
    474000   297.74081      0.017021443    12.462066      738.70317     -27.542844      711.16032    
    475000   292.71858      0.017021443    11.933224      726.24287     -29.153339      697.08953    
    476000   302.12248      0.017021443    8.9633077      749.57421     -28.538087      721.03612    
    477000   303.96933      0.017021443    9.8658988      754.15629     -32.223489      721.9328     
    478000   298.78758      0.017021443    9.3331162      741.30023     -32.120724      709.17951    
    479000   303.73943      0.017021443    8.2660149      753.5859      -33.407523      720.17837    
    480000   286.96552      0.017021443    8.5057353      711.96937     -35.182769      676.7866     
    481000   298.48435      0.017021443    8.0772305      740.5479      -33.893799      706.6541     
    482000   319.38254      0.017021443    13.128154      792.39688     -33.966252      758.43063    
    483000   294.46516      0.017021443    16.801933      730.57617     -32.909472      697.6667     
    484000   295.05353      0.017021443    4.1156572      732.03593     -30.240355      701.79558    
    485000   304.24168      0.017021443   -0.014570313    754.83199     -32.103243      722.72875    
    486000   309.0855       0.017021443    11.883389      766.84964     -27.474296      739.37534    
    487000   293.54716      0.017021443    14.308333      728.2986      -28.21939       700.07921    
    488000   285.00231      0.017021443    10.541763      707.09858     -29.237232      677.86135    
    489000   302.61255      0.017021443    8.0270034      750.79007     -31.744786      719.04529    
    490000   316.00521      0.017021443    10.484983      784.01765     -26.909795      757.10785    
    491000   285.70066      0.017021443    11.682014      708.8312      -25.618213      683.21299    
    492000   293.8485       0.017021443    9.7134128      729.04623     -25.096144      703.95009    
    493000   304.71684      0.017021443    7.8790939      756.01088     -28.254347      727.75653    
    494000   299.19219      0.017021443    7.7460077      742.30407     -26.359262      715.94481    
    495000   306.63275      0.017021443    10.125084      760.7643      -21.467632      739.29667    
    496000   299.00584      0.017021443    7.7851236      741.84174     -25.935853      715.90589    
    497000   294.85568      0.017021443    10.184278      731.54506     -27.653958      703.8911     
    498000   309.40712      0.017021443    10.650586      767.6476      -27.575984      740.07162    
    499000   298.40659      0.017021443    7.8866249      740.35497     -27.977814      712.37716    
    500000   284.66244      0.017021443    5.2222583      706.25536     -29.768755      676.48661    
    501000   297.60585      0.017021443    10.590464      738.36833     -29.993917      708.37441    
    502000   321.01943      0.017021443    11.159274      796.45807     -25.07064       771.38743    
    503000   296.64568      0.017021443    8.28873        735.98611     -28.108654      707.87745    
    504000   298.52107      0.017021443    9.1079378      740.639       -27.877225      712.76177    
    505000   322.61726      0.017021443    11.307205      800.42233     -26.31764       774.10469    
    506000   310.35557      0.017021443    9.9984592      770.00073     -25.68842       744.31231    
    507000   292.46135      0.017021443    8.3063866      725.60468     -26.905603      698.69908    
    508000   299.75195      0.017021443    9.6777201      743.69284     -30.370297      713.32255    
    509000   302.19376      0.017021443    9.6062561      749.75105     -28.039492      721.71155    
    510000   298.7066       0.017021443    8.7516521      741.09932     -25.48938       715.60994    
    511000   294.79084      0.017021443    8.514175       731.38419     -24.761964      706.62223    
    512000   310.16263      0.017021443    9.6184433      769.52203     -17.778148      751.74388    
    513000   311.99606      0.017021443    10.365136      774.07083     -21.546218      752.52462    
    514000   291.35011      0.017021443    8.9155496      722.84765     -20.667645      702.18001    
    515000   288.85516      0.017021443    9.6389137      716.65762     -19.344115      697.31351    
    516000   298.99834      0.017021443    14.072114      741.82312     -23.842881      717.98024    
    517000   300.19274      0.017021443    9.4743336      744.78646     -23.585672      721.20079    
    518000   297.19544      0.017021443    6.7737154      737.35009     -26.640412      710.70968    
    519000   294.51161      0.017021443    8.8503168      730.69141     -24.526976      706.16444    
    520000   288.50489      0.017021443    9.9153022      715.78859     -26.261926      689.52667    
    521000   303.19805      0.017021443    9.6518385      752.24271     -30.581828      721.66088    
    522000   299.51317      0.017021443    8.0960832      743.10042     -28.88667       714.21375    
    523000   286.18179      0.017021443    8.5206421      710.02492     -29.998041      680.02688    
    524000   299.50807      0.017021443    9.0175957      743.08778     -27.382138      715.70565    
    525000   307.36198      0.017021443    10.079404      762.57355     -23.614487      738.95906    
    526000   307.15696      0.017021443    2.1926123      762.06489     -27.021622      735.04327    
    527000   297.14859      0.017021443    9.8365006      737.23385     -23.272793      713.96105    
    528000   298.2899       0.017021443    9.3502342      740.06546     -26.606506      713.45895    
    529000   292.48309      0.017021443    8.4789383      725.6586      -25.45968       700.19892    
    530000   305.51561      0.017021443    9.701936       757.99265     -23.685267      734.30738    
    531000   304.36746      0.017021443    9.1477632      755.14407     -28.905356      726.23871    
    532000   291.62833      0.017021443    8.1680468      723.53791     -27.675626      695.86229    
    533000   303.17316      0.017021443    9.4415271      752.18097     -24.020894      728.16008    
    534000   300.55524      0.017021443    8.7073411      745.68585     -27.522706      718.16314    
    535000   284.09499      0.017021443    8.9038687      704.84751     -24.057882      680.78963    
    536000   296.72647      0.017021443    9.564618       736.18654     -20.822572      715.36397    
    537000   304.86207      0.017021443    6.719484       756.3712      -25.805502      730.5657     
    538000   302.76651      0.017021443    6.25737        751.17206     -26.408347      724.76371    
    539000   299.33122      0.017021443    13.490408      742.64901     -27.094595      715.55442    
    540000   302.33222      0.017021443    6.5747238      750.09458     -24.217515      725.87706    
    541000   304.47227      0.017021443   -0.47019273     755.40409     -29.156077      726.24801    
    542000   300.27627      0.017021443    16.191023      744.99371     -29.284149      715.70956    
    543000   284.42504      0.017021443    9.7222215      705.66637     -30.036383      675.62999    
    544000   304.952        0.017021443    7.0813641      756.59432     -24.249939      732.34438    
    545000   319.25296      0.017021443    9.1398244      792.07539     -26.094783      765.98061    
    546000   299.41697      0.017021443    11.754935      742.86177     -26.507774      716.35399    
    547000   287.0604       0.017021443    11.432414      712.20477     -25.721154      686.48361    
    548000   292.85733      0.017021443    7.5170816      726.5871      -20.783223      705.80387    
    549000   308.82581      0.017021443    10.980219      766.20535     -21.343399      744.86195    
    550000   304.22746      0.017021443    8.4911899      754.79672     -19.705237      735.09148    
    551000   300.33086      0.017021443    9.6184089      745.12915     -21.106859      724.02229    
    552000   311.9106       0.017021443    9.2804359      773.8588      -25.508518      748.35028    
    553000   297.36049      0.017021443    9.2386022      737.75958     -26.035111      711.72447    
    554000   282.94492      0.017021443    8.6143167      701.99415     -24.245166      677.74898    
    555000   299.55886      0.017021443    10.681949      743.2138      -26.078532      717.13527    
    556000   322.77056      0.017021443    9.5133472      800.80266     -29.739263      771.0634     
    557000   311.5418       0.017021443    9.1119987      772.9438      -28.793201      744.1506     
    558000   288.02794      0.017021443    9.969822       714.60525     -26.035671      688.56958    
    559000   290.47743      0.017021443    6.8816892      720.68251     -30.102274      690.58024    
    560000   310.14054      0.017021443    8.8680894      769.46724     -30.629343      738.8379     
    561000   300.26098      0.017021443    10.18239       744.95577     -28.900655      716.05512    
    562000   290.48629      0.017021443    8.9936146      720.7045      -27.641416      693.06309    
    563000   317.43216      0.017021443    10.818018      787.55794     -29.12649       758.43145    
    564000   301.68596      0.017021443    9.4030467      748.49118     -30.277156      718.21403    
    565000   287.97094      0.017021443    9.4471072      714.46385     -32.126106      682.33774    
    566000   304.50317      0.017021443    12.362909      755.48076     -32.369617      723.11114    
    567000   312.38395      0.017021443    7.5469046      775.03319     -33.12625       741.90694    
    568000   296.21633      0.017021443    7.9404207      734.92089     -30.93695       703.98394    
    569000   305.59478      0.017021443    12.932768      758.18908     -35.831866      722.35721    
    570000   296.3877       0.017021443    8.1495479      735.34605     -32.057517      703.28853    
    571000   286.95742      0.017021443    7.6830793      711.94927     -32.8201        679.12917    
    572000   296.48165      0.017021443    8.0911923      735.57914     -31.020341      704.5588     
    573000   304.47912      0.017021443    8.5929161      755.4211      -29.26859       726.15251    
    574000   298.69654      0.017021443    9.8322686      741.07434     -30.191951      710.88239    
    575000   297.34049      0.017021443    11.130984      737.70995     -31.188817      706.52113    
    576000   305.73222      0.017021443    9.8149149      758.53006     -30.308736      728.22132    
    577000   303.41578      0.017021443    7.6086061      752.78292     -30.864536      721.91838    
    578000   319.07308      0.017021443    8.3571373      791.62909     -31.700203      759.92889    
    579000   302.38058      0.017021443    13.320863      750.21456     -25.604853      724.60971    
    580000   297.65077      0.017021443    12.567106      738.47976     -29.277197      709.20256    
    581000   295.68336      0.017021443    10.421041      733.59857     -29.892259      703.70631    
    582000   296.7396       0.017021443    6.9467256      736.21912     -26.532629      709.68649    
    583000   290.30711      0.017021443   -1.1088         720.25994     -29.494406      690.76554    
    584000   304.45633      0.017021443    10.857265      755.36455     -32.99585       722.3687     
    585000   309.72045      0.017021443    11.677593      768.42498     -29.853546      738.57143    
    586000   293.85514      0.017021443    16.070503      729.06271     -31.240268      697.82244    
    587000   290.58135      0.017021443    18.13008       720.94034     -28.195501      692.74484    
    588000   304.30967      0.017021443    7.5282959      755.00069     -28.671106      726.32958    
    589000   311.48765      0.017021443   -1.1509891      772.80944     -27.959492      744.84994    
    590000   296.34397      0.017021443    11.399221      735.23755     -29.159305      706.07824    
    591000   286.39784      0.017021443    7.0599396      710.56093     -32.924994      677.63593    
    592000   296.52956      0.017021443    4.9010543      735.698       -28.719564      706.97844    
    593000   305.67105      0.017021443    6.3269547      758.37829     -35.137078      723.24121    
    594000   302.18554      0.017021443    4.6286018      749.73064     -30.574654      719.15599    
    595000   291.85642      0.017021443    13.014648      724.10381     -36.575717      687.5281     
    596000   286.92689      0.017021443    9.0237817      711.87352     -33.029913      678.8436     
    597000   299.76777      0.017021443    9.5597546      743.7321      -35.504022      708.22808    
    598000   298.01663      0.017021443    8.2834532      739.38748     -31.100248      708.28724    
    599000   299.56427      0.017021443    6.359706       743.22721     -31.420558      711.80666    
    600000   305.41838      0.017021443    12.36129       757.75142     -29.296301      728.45512    
    601000   296.41309      0.017021443    9.3092886      735.40904     -27.392281      708.01676    
    602000   303.17935      0.017021443    4.128351       752.19631     -28.227448      723.96887    
    603000   301.06237      0.017021443    9.8377413      746.94403     -28.260594      718.68343    
    604000   302.51645      0.017021443    10.208112      750.55164     -28.841478      721.71016    
    605000   291.06775      0.017021443    7.7326548      722.14712     -28.366865      693.78026    
    606000   311.31275      0.017021443    7.5535755      772.37552     -24.386699      747.98883    
    607000   302.40902      0.017021443    8.3378363      750.28511     -28.508368      721.77675    
    608000   307.6836       0.017021443    7.3336333      763.37148     -31.408342      731.96314    
    609000   288.58431      0.017021443    8.3459039      715.98564     -34.640059      681.34558    
    610000   310.69018      0.017021443    16.555737      770.8309      -36.587081      734.24381    
    611000   309.42592      0.017021443    8.4753255      767.69423     -31.375226      736.319      
    612000   292.44523      0.017021443    10.38811       725.56468     -28.216869      697.34782    
    613000   284.55884      0.017021443    17.38026       705.99831     -29.492734      676.50558    
    614000   307.12748      0.017021443    9.7469031      761.99174     -29.292095      732.69964    
    615000   315.03827      0.017021443    5.9569478      781.61863     -33.33934       748.27929    
    616000   290.64565      0.017021443    6.2904065      721.09986     -31.266577      689.83328    
    617000   289.61015      0.017021443    9.3929488      718.53077     -38.198621      680.33215    
    618000   305.83056      0.017021443    11.627536      758.77404     -33.198796      725.57525    
    619000   306.46157      0.017021443    10.985781      760.33959     -33.73753       726.60206    
    620000   298.60301      0.017021443    0.6543936      740.84229     -30.994773      709.84752    
    621000   290.78055      0.017021443    2.9894475      721.43456     -30.314806      691.11975    
    622000   303.1769       0.017021443    15.597249      752.19023     -27.266086      724.92415    
    623000   311.28082      0.017021443    3.0778171      772.29629     -28.314317      743.98197    
    624000   293.43893      0.017021443    5.1341842      728.03009     -25.917313      702.11277    
    625000   291.43609      0.017021443    8.6112053      723.06097     -26.634117      696.42686    
    626000   301.76176      0.017021443    9.4034811      748.67924     -25.530016      723.14922    
    627000   316.31654      0.017021443    12.090051      784.79005     -27.251965      757.53809    
    628000   300.00129      0.017021443    7.6929334      744.31146     -25.370324      718.94114    
    629000   295.34267      0.017021443    8.2757321      732.7533      -22.622176      710.13113    
    630000   305.03228      0.017021443    14.638112      756.7935      -24.902535      731.89097    
    631000   313.6214       0.017021443    3.7677117      778.10335     -24.054902      754.04844    
    632000   306.99203      0.017021443    3.4219059      761.65568     -26.541449      735.11424    
    633000   297.07996      0.017021443    9.6796255      737.06356     -21.408568      715.65499    
    634000   298.15095      0.017021443    14.58935       739.72072     -25.221738      714.49898    
    635000   315.59537      0.017021443    9.4844493      783.0008      -25.134806      757.866      
    636000   304.23509      0.017021443    7.1705093      754.81565     -27.424238      727.39141    
    637000   293.6211       0.017021443    8.0687275      728.48203     -25.29641       703.18562    
    638000   302.35717      0.017021443    9.1508946      750.15648     -32.732412      717.42407    
    639000   315.74752      0.017021443    10.105818      783.37831     -29.736914      753.64139    
    640000   293.75625      0.017021443    6.2369811      728.81736     -27.273418      701.54395    
    641000   290.74107      0.017021443    7.5850641      721.33662     -32.541685      688.79494    
    642000   305.69175      0.017021443    13.405485      758.42966     -27.262612      731.16704    
    643000   306.23076      0.017021443    6.4628248      759.76696     -23.939806      735.82715    
    644000   293.81859      0.017021443    7.8327097      728.97201     -28.879056      700.09296    
    645000   273.94176      0.017021443    10.422074      679.65706     -24.012259      655.6448     
    646000   308.84414      0.017021443    9.6064369      766.25083     -26.27678       739.97405    
    647000   312.43598      0.017021443    8.2000132      775.16227     -29.065902      746.09637    
    648000   289.58442      0.017021443    8.234225       718.46694     -30.760899      687.70604    
    649000   310.13445      0.017021443    14.870664      769.45211     -26.439641      743.01247    
    650000   309.86882      0.017021443    9.389357       768.79308     -29.888486      738.9046     
    651000   303.29267      0.017021443    9.64643        752.47749     -31.935423      720.54206    
    652000   298.47032      0.017021443    8.69256        740.5131      -28.32441       712.18869    
    653000   299.92215      0.017021443    9.2706301      744.11512     -30.981714      713.1334     
    654000   291.73559      0.017021443    4.5248217      723.80403     -31.039636      692.7644     
    655000   307.47033      0.017021443    10.276655      762.84236     -26.790099      736.05226    
    656000   291.6405       0.017021443    8.2067177      723.56812     -28.043801      695.52432    
    657000   296.3568       0.017021443    9.6302272      735.2694      -27.247094      708.0223     
    658000   298.15074      0.017021443    8.516621       739.72022     -30.908321      708.8119     
    659000   303.08288      0.017021443    9.193115       751.95697     -27.607257      724.34972    
    660000   301.84409      0.017021443    9.5377048      748.8835      -30.432083      718.45141    
    661000   308.9491       0.017021443    9.8618052      766.51123     -27.875577      738.63565    
    662000   296.15699      0.017021443    7.9434686      734.77366     -30.312537      704.46112    
    663000   293.12608      0.017021443    7.8653448      727.25389     -25.609561      701.64433    
    664000   299.74819      0.017021443    9.1997376      743.68352     -30.067902      713.61562    
    665000   291.24372      0.017021443    8.514344       722.58369     -28.621112      693.96258    
    666000   277.30938      0.017021443    14.948448      688.01223     -24.857668      663.15456    
    667000   305.3829       0.017021443    9.7815638      757.66339     -26.974819      730.68857    
    668000   308.72979      0.017021443    8.9306289      765.96712     -26.223693      739.74343    
    669000   294.44808      0.017021443    0.28805231     730.5338      -28.30369       702.23011    
    670000   294.70985      0.017021443    11.713519      731.18325     -30.235054      700.9482     
    671000   308.79397      0.017021443    11.774577      766.12634     -26.466075      739.66026    
    672000   308.0719       0.017021443    8.8671149      764.33488     -25.828153      738.50673    
    673000   290.08825      0.017021443    11.963432      719.71693     -23.114974      696.60196    
    674000   291.18329      0.017021443    20.390723      722.43376     -32.291755      690.14201    
    675000   308.22341      0.017021443    15.050447      764.71078     -36.763745      727.94703    
    676000   311.32145      0.017021443    7.3002163      772.39709     -31.521916      740.87518    
    677000   295.25201      0.017021443    7.0927336      732.52837     -33.801031      698.72734    
    678000   297.01381      0.017021443    9.6141261      736.89946     -31.922354      704.9771     
    679000   292.63084      0.017021443    8.6633431      726.02518     -28.150756      697.87443    
    680000   302.08968      0.017021443    10.0164        749.49282     -29.938744      719.55408    
    681000   295.35662      0.017021443    9.3794906      732.78792     -31.982         700.80592    
    682000   289.64823      0.017021443    8.9865428      718.62525     -32.388867      686.23639    
    683000   305.0367       0.017021443    9.7605671      756.80445     -28.604972      728.19948    
    684000   320.71418      0.017021443    10.54025       795.70072     -23.318515      772.38221    
    685000   289.76436      0.017021443    8.6347397      718.91336     -25.446791      693.46657    
    686000   300.58175      0.017021443    7.574236       745.75161     -25.621817      720.12979    
    687000   301.20949      0.017021443    11.520188      747.30905     -22.64115       724.6679     
    688000   312.80306      0.017021443    11.937393      776.07302     -27.094307      748.97871    
    689000   296.3952       0.017021443    8.5272183      735.36467     -25.318134      710.04653    
    690000   293.44324      0.017021443    6.9615836      728.04076     -36.869783      691.17098    
    691000   305.11052      0.017021443    8.8187826      756.9876      -37.834647      719.15296    
    692000   308.27917      0.017021443    9.0119326      764.84912     -32.316677      732.53245    
    693000   292.9827       0.017021443    10.567863      726.89815     -30.526875      696.37128    
    694000   303.05091      0.017021443    8.3965702      751.87766     -32.889925      718.98774    
    695000   303.04014      0.017021443    8.9741254      751.85095     -28.670626      723.18032    
    696000   288.19086      0.017021443    7.1228288      715.00947     -23.384183      691.62529    
    697000   309.64754      0.017021443    10.654055      768.24409     -22.084865      746.15923    
    698000   312.50559      0.017021443    8.6753642      775.33499     -24.101774      751.23321    
    699000   295.27984      0.017021443    10.961196      732.59743     -30.142334      702.45509    
    700000   304.28405      0.017021443    8.6071824      754.93712     -23.74396       731.19316    
    701000   301.88461      0.017021443    12.150941      748.98403     -25.39215       723.59188    
    702000   302.61448      0.017021443    8.738904       750.79487     -23.567459      727.22741    
    703000   293.33831      0.017021443    7.9605872      727.78043     -23.855711      703.92472    
    704000   299.83885      0.017021443    9.0933266      743.90844     -24.88371       719.02473    
    705000   295.4952       0.017021443    8.7373712      733.13174     -28.271454      704.86029    
    706000   301.25867      0.017021443    9.4463056      747.43107     -25.203748      722.22732    
    707000   305.13636      0.017021443    9.9390795      757.05172     -25.722448      731.32927    
    708000   298.66115      0.017021443    9.9999419      740.98654     -24.926915      716.05962    
    709000   305.27081      0.017021443    9.989629       757.3853      -23.762218      733.62308    
    710000   295.95808      0.017021443    8.8419966      734.28014     -25.18044       709.0997     
    711000   300.69597      0.017021443    4.50101        746.035       -23.111188      722.92381    
    712000   304.77495      0.017021443    10.0622        756.15506     -24.805592      731.34947    
    713000   295.86867      0.017021443    9.9464332      734.05832     -31.758591      702.29973    
    714000   273.34254      0.017021443    7.4786072      678.17039     -29.129219      649.04117    
    715000   307.47824      0.017021443    6.9953892      762.862       -32.253944      730.60805    
    716000   303.88971      0.017021443    10.589032      753.95875     -33.189151      720.7696     
    717000   301.0648       0.017021443    8.9010521      746.95006     -32.568326      714.38173    
    718000   302.27051      0.017021443    7.7007325      749.94147     -26.243146      723.69833    
    719000   306.4519       0.017021443    9.5221428      760.31562     -29.511218      730.8044     
    720000   300.35528      0.017021443    10.255193      745.18973     -32.126547      713.06318    
    721000   297.21146      0.017021443    8.621588       737.38982     -28.47355       708.91627    
    722000   319.98924      0.017021443    11.715415      793.90212     -26.845975      767.05614    
    723000   288.78023      0.017021443    9.0832239      716.47172     -31.176029      685.29569    
    724000   300.66687      0.017021443    6.5121705      745.96279     -32.428141      713.53465    
[...]
   3823000   294.92945      0.017021443    9.0772328      731.72809     -26.580827      705.14726    
   3824000   300.35106      0.017021443    10.952366      745.17927     -27.856378      717.32289    
   3825000   305.34796      0.017021443    8.9460428      757.57671     -28.453089      729.12363    
   3826000   304.7069       0.017021443    8.3197091      755.98622     -28.382593      727.60363    
   3827000   282.9859       0.017021443    8.9590062      702.09581     -33.52471       668.5711     
   3828000   307.84615      0.017021443    12.141597      763.77477     -30.477923      733.29685    
   3829000   301.4659       0.017021443    8.5662856      747.9452      -31.50611       716.43909    
   3830000   296.89996      0.017021443    9.0571477      736.61697     -27.771871      708.8451     
   3831000   308.01856      0.017021443    8.4273737      764.20254     -31.228589      732.97395    
   3832000   294.65495      0.017021443    9.6942224      731.04705     -28.341825      702.70522    
   3833000   303.38683      0.017021443    9.5718955      752.71108     -26.682022      726.02906    
   3834000   299.48233      0.017021443    9.4599491      743.02392     -25.328122      717.6958     
   3835000   304.65487      0.017021443    9.6842112      755.85714     -29.546467      726.31067    
   3836000   308.55462      0.017021443    10.103969      765.53252     -34.871501      730.66102    
   3837000   290.4332       0.017021443    9.1141374      720.57278     -32.70182       687.87096    
   3838000   282.83616      0.017021443    9.3466483      701.72432     -31.075954      670.64836    
   3839000   308.09222      0.017021443    10.125928      764.38528     -31.477375      732.9079     
   3840000   307.18273      0.017021443    6.6652038      762.12881     -27.575164      734.55365    
   3841000   286.23953      0.017021443    8.0199881      710.16816     -29.869556      680.2986     
   3842000   296.25319      0.017021443    10.969806      735.01233     -27.430142      707.58218    
   3843000   311.82384      0.017021443    9.6227195      773.64355     -27.610955      746.03259    
   3844000   296.06311      0.017021443    8.7290044      734.54073     -30.524121      704.01661    
   3845000   296.6435       0.017021443    11.151959      735.98069     -30.372038      705.60865    
   3846000   304.10014      0.017021443    10.00358       754.48084     -34.63124       719.8496     
   3847000   297.90325      0.017021443    11.488061      739.10619     -30.613872      708.49231    
   3848000   290.40989      0.017021443    9.68052        720.51495     -28.690426      691.82452    
   3849000   305.55423      0.017021443    6.3394054      758.08846     -31.906567      726.18189    
   3850000   314.69241      0.017021443    10.721523      780.76055     -28.451924      752.30862    
   3851000   296.11491      0.017021443    9.2979557      734.66925     -22.950966      711.71828    
   3852000   297.13712      0.017021443    8.4965286      737.20539     -23.894312      713.31108    
   3853000   302.94697      0.017021443    9.0038146      751.61978     -24.159175      727.46061    
   3854000   311.46495      0.017021443    7.9543723      772.75313     -28.664228      744.0889     
   3855000   299.80006      0.017021443    12.561746      743.81221     -25.00131       718.8109     
   3856000   277.52701      0.017021443    7.5059026      688.55217     -30.757681      657.79449    
   3857000   307.52873      0.017021443    7.5187355      762.98726     -34.537098      728.45016    
   3858000   305.32849      0.017021443    12.956725      757.5284      -33.165365      724.36304    
   3859000   289.08098      0.017021443    13.714598      717.21788     -35.314012      681.90387    
   3860000   300.58479      0.017021443    5.4465764      745.75916     -29.641015      716.11814    
   3861000   323.03805      0.017021443    10.771895      801.4663      -27.699307      773.76699    
   3862000   295.65325      0.017021443    12.709844      733.52387     -26.407368      707.11651    
   3863000   287.6309       0.017021443    6.5848183      713.6202      -30.25475       683.36545    
   3864000   300.0846       0.017021443    7.1896535      744.51818     -31.32438       713.1938     
   3865000   311.89967      0.017021443    12.975086      773.83167     -32.527498      741.30418    
   3866000   296.42938      0.017021443    7.4702496      735.44946     -31.888704      703.56076    
   3867000   291.0217       0.017021443    5.9084064      722.03285     -31.477727      690.55512    
   3868000   303.10458      0.017021443    9.2653647      752.01081     -32.63675       719.37406    
   3869000   315.50917      0.017021443    12.992104      782.78694     -28.160242      754.6267     
   3870000   289.29003      0.017021443    16.284043      717.73654     -25.696809      692.03973    
   3871000   300.82849      0.017021443    8.2767484      746.36379     -35.500151      710.86363    
   3872000   307.54422      0.017021443    5.0395529      763.02568     -38.345575      724.6801     
   3873000   295.87542      0.017021443    11.870981      734.07506     -37.754082      696.32098    
   3874000   287.53205      0.017021443    10.341681      713.37495     -36.749187      676.62576    
   3875000   302.1319       0.017021443    5.3940228      749.59756     -30.942492      718.65507    
   3876000   300.49475      0.017021443    3.7255437      745.53575     -35.011767      710.52398    
   3877000   311.99428      0.017021443    14.009095      774.06641     -34.038071      740.02834    
   3878000   293.70699      0.017021443    11.212447      728.69513     -33.089194      695.60594    
   3879000   295.9125       0.017021443    7.2938889      734.16707     -31.890111      702.27696    
   3880000   324.38232      0.017021443    2.3173045      804.80147     -29.786748      775.01472    
   3881000   301.96781      0.017021443    12.132048      749.19047     -24.710279      724.48019    
   3882000   300.19013      0.017021443    14.940285      744.77999     -25.656015      719.12398    
   3883000   299.7737       0.017021443    11.816074      743.74682     -27.068563      716.67825    
   3884000   296.3951       0.017021443    1.2169657      735.3644      -28.071246      707.29316    
   3885000   321.31137      0.017021443    7.3097576      797.18237     -27.155467      770.0269     
   3886000   299.46898      0.017021443    12.249412      742.99079     -30.983887      712.0069     
   3887000   291.66882      0.017021443    9.230805       723.63838     -28.03064       695.60774    
   3888000   297.99257      0.017021443    7.093314       739.32778     -32.321776      707.00601    
   3889000   301.88614      0.017021443    4.188317       748.98783     -32.293791      716.69404    
   3890000   300.59536      0.017021443    11.541124      745.78537     -31.850012      713.93536    
   3891000   291.34134      0.017021443    11.939213      722.82588     -32.67521       690.15067    
   3892000   306.62676      0.017021443    20.558227      760.74944     -33.241996      727.50744    
   3893000   300.16467      0.017021443    9.767576       744.71683     -27.080591      717.63623    
   3894000   296.34167      0.017021443    3.260307       735.23184     -33.177645      702.0542     
   3895000   297.40024      0.017021443    8.612437       737.8582      -35.024225      702.83398    
   3896000   309.54717      0.017021443    12.959059      767.99507     -30.703412      737.29166    
   3897000   292.70101      0.017021443    10.192074      726.19926     -31.398291      694.80097    
   3898000   292.0656       0.017021443    2.5298589      724.6228      -28.15804       696.46476    
   3899000   312.4693       0.017021443    4.7810795      775.24496     -26.298738      748.94622    
   3900000   305.38681      0.017021443    9.3697184      757.6731      -26.838839      730.83427    
   3901000   285.44365      0.017021443    8.7534786      708.19355     -29.89051       678.30304    
   3902000   297.02751      0.017021443    8.79554        736.93345     -27.551306      709.38214    
   3903000   314.35095      0.017021443    9.9001312      779.91338     -28.226824      751.68655    
   3904000   303.4578       0.017021443    12.026894      752.88717     -37.956312      714.93086    
   3905000   283.46763      0.017021443    8.8342033      703.29101     -40.423774      662.86724    
   3906000   296.35662      0.017021443    7.5082456      735.26895     -33.573007      701.69594    
   3907000   300.82223      0.017021443    5.2173991      746.34823     -33.90128       712.44695    
   3908000   309.44797      0.017021443    10.569791      767.74894     -35.534011      732.21493    
   3909000   283.35827      0.017021443    10.082096      703.01967     -31.753974      671.2657     
   3910000   287.40657      0.017021443    5.3957723      713.06361     -33.390871      679.67274    
   3911000   313.78047      0.017021443    0.53228462     778.498       -31.50845       746.98955    
   3912000   305.33967      0.017021443    13.988569      757.55613     -31.857124      725.69901    
   3913000   296.79753      0.017021443    11.910697      736.36284     -38.296293      698.06655    
   3914000   295.19012      0.017021443    12.72934       732.37482     -38.818912      693.55591    
   3915000   294.88923      0.017021443    8.1645938      731.62831     -31.601341      700.02697    
   3916000   302.88048      0.017021443    6.6759446      751.45481     -30.989399      720.46541    
   3917000   311.02144      0.017021443    12.074453      771.65276     -30.999382      740.65338    
   3918000   304.85566      0.017021443    9.4233475      756.3553      -33.890935      722.46437    
   3919000   284.14333      0.017021443    7.9919936      704.96744     -34.859197      670.10824    
   3920000   295.363        0.017021443    9.5056747      732.80374     -37.577782      695.22595    
   3921000   319.11838      0.017021443    9.6026255      791.7415      -40.933664      750.80784    
   3922000   295.84768      0.017021443    9.2016832      734.00624     -37.812332      696.19391    
   3923000   294.54066      0.017021443    8.7783301      730.76349     -35.312214      695.45128    
   3924000   299.5244       0.017021443    10.504884      743.12829     -40.560056      702.56823    
   3925000   309.59092      0.017021443    7.1004463      768.1036      -36.707063      731.39653    
   3926000   294.50719      0.017021443    8.8214603      730.68046     -38.36156       692.3189     
   3927000   303.815        0.017021443    8.0266963      753.77339     -36.174437      717.59895    
   3928000   307.10061      0.017021443    10.362885      761.92507     -35.331274      726.5938     
   3929000   309.41764      0.017021443    12.932175      767.67369     -35.660692      732.013      
   3930000   296.97244      0.017021443    11.398366      736.79682     -37.023329      699.77349    
   3931000   304.89703      0.017021443    1.4941316      756.45793     -34.534206      721.92373    
   3932000   306.94232      0.017021443    11.556306      761.53235     -31.198605      730.33374    
   3933000   297.0082       0.017021443    8.2442035      736.88553     -32.687807      704.19772    
   3934000   286.66289      0.017021443    8.0867931      711.21854     -39.603833      671.61471    
   3935000   295.70557      0.017021443    7.4933168      733.65367     -33.287429      700.36624    
   3936000   311.16277      0.017021443    9.0252055      772.00341     -36.006156      735.99725    
   3937000   295.77304      0.017021443    12.93179       733.82106     -29.340591      704.48047    
   3938000   279.99228      0.017021443    9.8116089      694.66855     -28.686693      665.98186    
   3939000   296.31071      0.017021443    5.5267051      735.15503     -31.388926      703.7661     
   3940000   327.75804      0.017021443    14.12319       813.17674     -32.423167      780.75357    
   3941000   303.72723      0.017021443    13.402629      753.55563     -31.221426      722.33421    
   3942000   282.26235      0.017021443    8.5607945      700.30067     -27.228394      673.07227    
   3943000   303.56774      0.017021443    3.7693279      753.15992     -25.296748      727.86317    
   3944000   317.64291      0.017021443    9.1603366      788.08082     -26.18286       761.89796    
   3945000   285.20645      0.017021443    11.876085      707.60506     -29.694596      677.91046    
   3946000   292.98993      0.017021443    9.1409043      726.9161      -24.035664      702.88043    
   3947000   300.79688      0.017021443    7.2758642      746.28535     -30.294161      715.99119    
   3948000   303.48089      0.017021443    7.6686279      752.94445     -29.621934      723.32252    
   3949000   304.60513      0.017021443    9.6440756      755.73371     -29.066864      726.66685    
   3950000   282.13898      0.017021443    9.4465812      699.99458     -32.75913       667.23545    
   3951000   279.28769      0.017021443    8.1460287      692.92046     -34.615214      658.30525    
   3952000   299.61001      0.017021443    9.554105       743.34068     -36.14962       707.19106    
   3953000   310.63664      0.017021443    9.5540772      770.69807     -34.225309      736.47276    
   3954000   305.26145      0.017021443    7.3350198      757.36207     -31.754461      725.6076     
   3955000   295.13229      0.017021443    9.2009964      732.23134     -30.591901      701.63944    
   3956000   296.11377      0.017021443    9.56642        734.66643     -29.704145      704.96229    
   3957000   313.98661      0.017021443    10.005126      779.00943     -30.501348      748.50808    
   3958000   302.85798      0.017021443    9.0439879      751.39899     -25.41308       725.98591    
   3959000   301.14022      0.017021443    10.26183       747.13718     -28.550724      718.58645    
   3960000   303.31462      0.017021443    10.354215      752.53194     -26.26426       726.26768    
   3961000   303.05978      0.017021443    6.6726596      751.89967     -27.409607      724.49007    
   3962000   296.34025      0.017021443    5.316661       735.22832     -23.9419        711.28642    
   3963000   298.32248      0.017021443    10.343846      740.14629     -25.504006      714.64228    
   3964000   321.76002      0.017021443    11.44742       798.29548     -21.938867      776.35661    
   3965000   296.84063      0.017021443    6.7833229      736.46978     -25.61508       710.8547     
   3966000   295.12517      0.017021443    5.073121       732.21367     -22.676053      709.53762    
   3967000   296.4582       0.017021443    12.919997      735.52097     -20.64255       714.87842    
   3968000   295.97645      0.017021443    9.4200287      734.32573     -23.83272       710.49301    
   3969000   300.8745       0.017021443    0.63361484     746.47793     -24.227469      722.25047    
   3970000   296.3465       0.017021443    8.4251601      735.24384     -23.181565      712.06228    
   3971000   313.53664      0.017021443    17.805739      777.89305     -21.590928      756.30212    
   3972000   293.52491      0.017021443   -2.0947025      728.24339     -23.600684      704.64271    
   3973000   292.41207      0.017021443    12.197079      725.4824      -26.149962      699.33244    
   3974000   296.61176      0.017021443    19.121415      735.90195     -26.713715      709.18824    
   3975000   324.45498      0.017021443    20.746378      804.98175     -24.756256      780.22549    
   3976000   302.70201      0.017021443    5.6239376      751.01204     -28.299855      722.71219    
   3977000   289.16348      0.017021443    11.165511      717.42256     -26.743925      690.67863    
   3978000   301.44012      0.017021443    16.73175       747.88124     -29.142822      718.73842    
   3979000   326.52267      0.017021443   -3.5145544      810.11176     -31.864115      778.24764    
   3980000   298.30137      0.017021443   -7.1013965      740.09392     -29.720258      710.37366    
   3981000   286.70964      0.017021443    15.562701      711.33451     -27.607672      683.72684    
   3982000   296.13813      0.017021443    17.259815      734.72686     -29.201057      705.52581    
   3983000   317.74645      0.017021443    13.250568      788.33771     -30.137817      758.19989    
   3984000   297.40179      0.017021443    5.4304734      737.86203     -32.096685      705.76535    
   3985000   288.9687       0.017021443    2.8790983      716.9393      -34.564193      682.37511    
   3986000   302.04501      0.017021443    13.646042      749.38199     -27.225739      722.15625    
   3987000   307.01593      0.017021443    19.185449      761.71498     -26.65724       735.05774    
   3988000   306.48733      0.017021443    2.9862159      760.40351     -26.650342      733.75317    
   3989000   291.75364      0.017021443    6.6672309      723.84883     -27.282572      696.56626    
   3990000   293.90127      0.017021443    11.983885      729.17716     -28.211017      700.96614    
   3991000   306.76331      0.017021443    13.191388      761.08824     -28.280791      732.80745    
   3992000   322.03831      0.017021443    5.6977257      798.98593     -26.800928      772.185      
   3993000   290.8248       0.017021443    2.7164121      721.54435     -25.404221      696.14013    
   3994000   293.62339      0.017021443    10.720109      728.48771     -28.88061       699.6071     
   3995000   307.71223      0.017021443    11.447878      763.44252     -23.79358       739.64894    
   3996000   322.54992      0.017021443    7.6815236      800.25525     -28.444881      771.81037    
   3997000   299.84769      0.017021443    4.4433377      743.93037     -26.271528      717.65885    
   3998000   293.38739      0.017021443    22.553945      727.90219     -26.957218      700.94498    
   3999000   307.7834       0.017021443    5.6834891      763.61911     -24.140223      739.47888    
   4000000   295.58243      0.017021443    3.7587562      733.34817     -24.079024      709.26914    
Loop time of 10544 on 1 procs for 4000000 steps with 1500 atoms

Performance: 8.194 ns/day, 2.929 hours/ns, 379.362 timesteps/s, 569.043 katom-step/s
99.2% CPU use with 1 MPI tasks x 1 OpenMP threads

MPI task timing breakdown:
Section |  min time  |  avg time  |  max time  |%varavg| %total
---------------------------------------------------------------
Pair    | 710.58     | 710.58     | 710.58     |   0.0 |  6.74
Bond    | 181.99     | 181.99     | 181.99     |   0.0 |  1.73
Kspace  | 8806.1     | 8806.1     | 8806.1     |   0.0 | 83.52
Neigh   | 0.039855   | 0.039855   | 0.039855   |   0.0 |  0.00
Comm    | 27.628     | 27.628     | 27.628     |   0.0 |  0.26
Output  | 0.12529    | 0.12529    | 0.12529    |   0.0 |  0.00
Modify  | 800.44     | 800.44     | 800.44     |   0.0 |  7.59
Other   |            | 17.09      |            |       |  0.16

Nlocal:           1500 ave        1500 max        1500 min
Histogram: 1 0 0 0 0 0 0 0 0 0
Nghost:           1204 ave        1204 max        1204 min
Histogram: 1 0 0 0 0 0 0 0 0 0
Neighs:              0 ave           0 max           0 min
Histogram: 1 0 0 0 0 0 0 0 0 0

Total # of neighbors = 0
Ave neighs/atom = 0
Ave special neighs/atom = 2
Neighbor list builds = 16445
Dangerous builds = 0
write_data	last_conf.data pair ij
System init for write_data ...
PPPM initialization ...
  using 12-bit tables for long-range coulomb (src/kspace.cpp:342)
  G vector (1/distance) = 0.16458777
  grid = 27 27 27
  stencil order = 5
  estimated absolute RMS force accuracy = 0.035513361
  estimated relative force accuracy = 0.00010694743
  using double precision FFTW3
  3d grid and FFT values/proc = 32768 19683
Generated 1 of 1 mixed pair_coeff terms from arithmetic mixing rule
Total wall time: 2:55:44
