LAMMPS data file via write_data, version 29 Aug 2024, timestep = 0, units = real

1500 atoms
2 atom types
1000 bonds
1 bond types
500 angles
1 angle types

0 130 xlo xhi
0 130 ylo yhi
0 130 zlo zhi

Masses

1 12.0107
2 15.9994

PairIJ Coeffs # lj/cut/coul/long/gpu

1 1 0.053649 2.8 12
1 2 0.0917684 2.925 12
2 2 0.156973 3.05 12

Bond Coeffs # harmonic

1 0 1.16

Angle Coeffs # harmonic

1 0 180

Atoms # full

1 1 1 0.7 9.57796728218811 36.89611173556005 12.949939557793522 0 0 0
2 1 2 -0.35 8.570306537945894 37.133797761193605 12.426752040996965 0 0 0
3 1 2 -0.35 10.585628026430326 36.65842570992649 13.47312707459008 0 0 0
4 2 1 0.7 29.634147835725056 31.122675031015035 88.79924626965041 0 0 0
5 2 2 -0.35 29.98146769185464 31.623242121827246 87.81212849292166 0 0 0
6 2 2 -0.35 29.286827979595472 30.622107940202824 89.78636404637916 0 0 0
7 3 1 0.7 48.93205401437919 21.031819670941594 11.793209515415695 0 0 0
8 3 2 -0.35 48.469445159426215 19.968056456105085 11.792276734739662 0 0 0
9 3 2 -0.35 49.394662869332166 22.095582885778104 11.794142296091728 0 0 0
10 4 1 0.7 88.4723255915904 14.37621785997237 81.09357255561909 0 0 0
11 4 2 -0.35 87.3872662738314 14.575261798123531 81.45221971876086 0 0 0
12 4 2 -0.35 89.55738490934941 14.177173921821208 80.73492539247732 0 0 0
13 5 1 0.7 19.673942290094654 69.94806962085332 27.206117681789266 0 0 0
14 5 2 -0.35 19.501283515050233 70.23304807037356 28.31723254115764 0 0 0
15 5 2 -0.35 19.846601065139076 69.66309117133308 26.09500282242089 0 0 0
16 6 1 0.7 43.21987783220591 86.48672588471636 52.401944427938176 0 0 0
17 6 2 -0.35 42.132403647816496 86.66028552990662 52.03742152351651 0 0 0
18 6 2 -0.35 44.307352016595324 86.31316623952611 52.766467332359845 0 0 0
19 7 1 0.7 99.48000035690143 30.365998442455194 111.33582234444833 0 0 0
20 7 2 -0.35 98.45862775733626 30.628674558702517 110.85270820595647 0 0 0
21 7 2 -0.35 100.5013729564666 30.10332232620787 111.81893648294019 0 0 0
22 8 1 0.7 1.1661431431612665 99.36780711140848 94.73412144218298 0 0 0
23 8 2 -0.35 0.6912497434315631 100.38523939323187 95.02551089085405 0 0 0
24 8 2 -0.35 1.6410365428909701 98.35037482958509 94.44273199351191 0 0 0
25 9 1 0.7 86.37907876930157 63.17687565143075 103.74907359655437 0 0 0
26 9 2 -0.35 86.03832176625279 63.88889422658447 102.89906523570768 0 0 0
27 9 2 -0.35 86.71983577235035 62.46485707627703 104.59908195740105 0 0 0
28 10 1 0.7 20.679937289413036 77.70602316488792 25.131332271327885 0 0 0
29 10 2 -0.35 20.68651659938738 76.74648119067066 25.7831266502508 0 0 0
30 10 2 -0.35 20.67335797943869 78.66556513910518 24.47953789240497 0 0 0
31 11 1 0.7 12.301484207763098 51.045079874361434 44.657448392667554 0 0 0
32 11 2 -0.35 11.907073236210552 51.01590179551377 45.7479476477034 0 0 0
33 11 2 -0.35 12.695895179315643 51.0742579532091 43.56694913763171 0 0 0
34 12 1 0.7 67.7351355635259 14.423416179801997 94.35573393216158 0 0 0
35 12 2 -0.35 66.81579678489913 15.106824471083584 94.53840663817053 0 0 0
36 12 2 -0.35 68.65447434215267 13.74000788852041 94.17306122615264 0 0 0
37 13 1 0.7 96.82019783967183 47.06509136458165 102.99056452372604 0 0 0
38 13 2 -0.35 96.90516801649397 45.91424880657318 102.87249049725393 0 0 0
39 13 2 -0.35 96.7352276628497 48.21593392259012 103.10863855019814 0 0 0
40 14 1 0.7 12.417950263441517 58.490077661578574 112.73525815118813 0 0 0
41 14 2 -0.35 11.716930857932459 58.14924571583407 113.59433054502915 0 0 0
42 14 2 -0.35 13.118969668950575 58.83090960732308 111.87618575734712 0 0 0
43 15 1 0.7 121.4837470191921 127.33615156139068 78.69929229314405 0 0 0
44 15 2 -0.35 120.6971099419783 127.34226652955088 77.84678732781134 0 0 0
45 15 2 -0.35 122.27038409640589 127.33003659323047 79.55179725847677 0 0 0
46 16 1 0.7 79.00557087222374 26.629649464334197 104.5185470648662 0 0 0
47 16 2 -0.35 77.85604356860284 26.47947414093865 104.47811996414035 0 0 0
48 16 2 -0.35 80.15509817584464 26.779824787729744 104.55897416559205 0 0 0
49 17 1 0.7 83.22051920612367 17.266297320493635 34.65906553653026 0 0 0
50 17 2 -0.35 82.24879273614637 17.837986090337576 34.93204835280224 0 0 0
51 17 2 -0.35 84.19224567610097 16.694608550649694 34.38608272025827 0 0 0
52 18 1 0.7 114.91447246396656 87.53870188609636 52.962599621602614 0 0 0
53 18 2 -0.35 114.09883392707809 88.1604873395413 52.420643325369504 0 0 0
54 18 2 -0.35 115.73011100085503 86.91691643265142 53.504555917835724 0 0 0
55 19 1 0.7 32.411840275121776 45.799503971729195 22.26325285260717 0 0 0
56 19 2 -0.35 32.23209963661379 46.111122573483804 21.160444097695766 0 0 0
57 19 2 -0.35 32.59158091362976 45.487885369974585 23.366061607518574 0 0 0
58 20 1 0.7 38.49069376871488 33.09017079094898 6.5004834795838615 0 0 0
59 20 2 -0.35 39.411152895145754 33.02547891451944 7.203455710681313 0 0 0
60 20 2 -0.35 37.570234642284 33.154862667378524 5.79751124848641 0 0 0
61 21 1 0.7 53.6258413659529 129.5158375704269 52.6820461650761 0 0 0
62 21 2 -0.35 54.43547803708196 128.78736708539313 53.08131952155976 0 0 0
63 21 2 -0.35 52.816204694823846 0.2443080554606638 52.28277280859244 0 1 0
64 22 1 0.7 127.1498964341124 68.30936812716972 45.55011334156157 0 0 0
65 22 2 -0.35 126.2245914215826 67.62499472523626 45.40504894030052 0 0 0
66 22 2 -0.35 128.0752014466422 68.99374152910318 45.69517774282262 0 0 0
67 23 1 0.7 120.75493162533031 98.13582692674167 58.84315774722172 0 0 0
68 23 2 -0.35 121.51757037057678 98.73553846712684 58.207289669254486 0 0 0
69 23 2 -0.35 119.99229288008385 97.5361153863565 59.47902582518895 0 0 0
70 24 1 0.7 66.95225755542155 116.59273397018795 84.07983694881194 0 0 0
71 24 2 -0.35 66.13281984026162 117.33261078451126 84.4357921856048 0 0 0
72 24 2 -0.35 67.77169527058149 115.85285715586464 83.7238817120191 0 0 0
73 25 1 0.7 29.819598682140743 27.99505073949464 42.81777868644231 0 0 0
74 25 2 -0.35 28.775778015212552 27.511684480862517 42.66812750766456 0 0 0
75 25 2 -0.35 30.863419349068934 28.478416998126765 42.96742986522006 0 0 0
76 26 1 0.7 88.40638303589374 76.07968426592635 121.25345742388325 0 0 0
77 26 2 -0.35 87.32531689247635 76.37659259094832 120.95556240866934 0 0 0
78 26 2 -0.35 89.48744917931113 75.78277594090437 121.55135243909716 0 0 0
79 27 1 0.7 26.858923205574474 57.92231609016765 60.366527447647655 0 0 0
80 27 2 -0.35 26.01223858451039 57.84807951769463 59.5770883532515 0 0 0
81 27 2 -0.35 27.70560782663856 57.99655266264067 61.155966542043814 0 0 0
82 28 1 0.7 60.22681261423361 52.039607424307434 119.68198033500555 0 0 0
83 28 2 -0.35 59.396515884929826 52.59415973672376 120.27247087184855 0 0 0
84 28 2 -0.35 61.05710934353739 51.48505511189111 119.09148979816254 0 0 0
85 29 1 0.7 5.043490438276665 5.943796115901225 57.381319951909276 0 0 0
86 29 2 -0.35 3.8841177634351203 5.968589940077913 57.4103073131803 0 0 0
87 29 2 -0.35 6.20286311311821 5.919002291724538 57.352332590638255 0 0 0
88 30 1 0.7 67.84443173922804 31.364241205791124 118.80194573141725 0 0 0
89 30 2 -0.35 66.92460624989172 31.413275517819596 118.09688069511839 0 0 0
90 30 2 -0.35 68.76425722856436 31.315206893762653 119.50701076771611 0 0 0
91 31 1 0.7 34.30190792973242 92.16657501280613 93.62624023278534 0 0 0
92 31 2 -0.35 34.614088071366375 91.18103300042819 93.10007438344937 0 0 0
93 31 2 -0.35 33.98972778809847 93.15211702518408 94.1524060821213 0 0 0
94 32 1 0.7 56.21959242328051 42.68985807555256 18.444675811773482 0 0 0
95 32 2 -0.35 55.428221148816405 41.84240332737626 18.410735338198137 0 0 0
96 32 2 -0.35 57.010963697744614 43.537312823728854 18.478616285348828 0 0 0
97 33 1 0.7 79.66636847689114 82.65499110922914 2.435572814399178 0 0 0
98 33 2 -0.35 78.52523696479946 82.49162534760342 2.5649192485974464 0 0 0
99 33 2 -0.35 80.80749998898281 82.81835687085487 2.3062263802009095 0 0 0
100 34 1 0.7 114.67229160697772 47.20503847450252 115.0816409639463 0 0 0
101 34 2 -0.35 113.67367398369973 47.152630855648695 114.49374957604826 0 0 0
102 34 2 -0.35 115.67090923025572 47.25744609335635 115.66953235184434 0 0 0
103 35 1 0.7 37.13968104549669 76.61933166283153 91.1072572093025 0 0 0
104 35 2 -0.35 35.99346948477083 76.79753375349583 91.10069421141553 0 0 0
105 35 2 -0.35 38.285892606222546 76.44112957216723 91.11382020718948 0 0 0
106 36 1 0.7 99.67191674731295 5.9047720888186115 51.50449677440547 0 0 0
107 36 2 -0.35 98.69128395005646 5.34992389491737 51.78036413142591 0 0 0
108 36 2 -0.35 100.65254954456944 6.459620282719853 51.22862941738502 0 0 0
109 37 1 0.7 96.07728743277364 40.96988262653811 100.81730422601909 0 0 0
110 37 2 -0.35 94.9180807694697 40.96730362226372 100.77448763474105 0 0 0
111 37 2 -0.35 97.23649409607759 40.9724616308125 100.86012081729713 0 0 0
112 38 1 0.7 16.43212670294201 54.753496346414785 102.01309419330819 0 0 0
113 38 2 -0.35 16.475114811919713 55.362778531120775 101.02692623505442 0 0 0
114 38 2 -0.35 16.389138593964308 54.144214161708796 102.99926215156196 0 0 0
115 39 1 0.7 94.07410693078958 43.51518578059747 109.727414501704 0 0 0
116 39 2 -0.35 93.28552006638617 42.80061478870359 109.26576630790899 0 0 0
117 39 2 -0.35 94.862693795193 44.22975677249135 110.18906269549902 0 0 0
118 40 1 0.7 8.65553013917782 3.495049161601369 111.29125903420673 0 0 0
119 40 2 -0.35 8.403851879686455 3.535630052513219 112.42289998653754 0 0 0
120 40 2 -0.35 8.907208398669185 3.454468270689519 110.15961808187592 0 0 0
121 41 1 0.7 32.19058791277492 97.21105000805623 116.11748540127533 0 0 0
122 41 2 -0.35 31.66955548203486 97.9637712820593 115.40506986959436 0 0 0
123 41 2 -0.35 32.71162034351499 96.45832873405317 116.8299009329563 0 0 0
124 42 1 0.7 26.57713923443907 1.9791132174335015 112.95584540486142 0 0 0
125 42 2 -0.35 25.434518904297356 1.8126327343580888 113.06676442893674 0 0 0
126 42 2 -0.35 27.719759564580784 2.1455937005089143 112.8449263807861 0 0 0
127 43 1 0.7 58.89371950593484 6.743736246947076 111.97510243951115 0 0 0
128 43 2 -0.35 59.998779077942345 6.8015025541150695 111.62709899689777 0 0 0
129 43 2 -0.35 57.788659933927335 6.685969939779083 112.32310588212452 0 0 0
130 44 1 0.7 85.54670086388788 113.40141936363717 7.6552446501586795 0 0 0
131 44 2 -0.35 84.92592200823347 114.28374117035278 7.228932743491142 0 0 0
132 44 2 -0.35 86.16747971954229 112.51909755692157 8.081556556826216 0 0 0
133 45 1 0.7 91.69683521692492 128.70949085741745 20.412840615218897 0 0 0
134 45 2 -0.35 90.57487062752409 128.47749754002507 20.594429603915657 0 0 0
135 45 2 -0.35 92.81879980632576 128.94148417480983 20.231251626522138 0 0 0
136 46 1 0.7 8.612219983996926 55.58127103633307 104.42230764982398 0 0 0
137 46 2 -0.35 8.304471111548681 55.23854189200327 105.4869331075009 0 0 0
138 46 2 -0.35 8.919968856445172 55.92400018066287 103.35768219214705 0 0 0
139 47 1 0.7 25.72467059163594 104.53863362527389 30.81533997823267 0 0 0
140 47 2 -0.35 25.001060653881368 104.68689338533773 31.709771474507615 0 0 0
141 47 2 -0.35 26.448280529390516 104.39037386521005 29.920908481957728 0 0 0
142 48 1 0.7 123.41901415652549 23.370928724003456 65.19906432609962 0 0 0
143 48 2 -0.35 122.40896580922771 22.805951189454866 65.27782168497117 0 0 0
144 48 2 -0.35 124.42906250382327 23.935906258552045 65.12030696722806 0 0 0
145 49 1 0.7 30.674128756241 90.0820061425129 28.277237214277143 0 0 0
146 49 2 -0.35 30.854300527456893 89.19127172596906 27.55631396451942 0 0 0
147 49 2 -0.35 30.493956985025108 90.97274055905673 28.998160464034868 0 0 0
148 50 1 0.7 105.52586035594616 113.13500238728477 79.98512309509567 0 0 0
149 50 2 -0.35 104.85606824055513 112.34238237203361 80.50351680028821 0 0 0
150 50 2 -0.35 106.1956524713372 113.92762240253593 79.46672938990314 0 0 0
151 51 1 0.7 109.96385927310392 82.58280305777807 89.1709920760109 0 0 0
152 51 2 -0.35 109.13994950644283 83.1377416838306 89.77000444459391 0 0 0
153 51 2 -0.35 110.78776903976501 82.02786443172553 88.5719797074279 0 0 0
154 52 1 0.7 56.8638215152844 80.24820738483602 111.62151693907637 0 0 0
155 52 2 -0.35 56.81267505598025 79.08936723473214 111.63009284765018 0 0 0
156 52 2 -0.35 56.91496797458855 81.4070475349399 111.61294103050257 0 0 0
157 53 1 0.7 122.8351950565517 91.12331546429698 109.56300843952363 0 0 0
158 53 2 -0.35 121.79552369513188 91.0454707718208 109.05445788736903 0 0 0
159 53 2 -0.35 123.87486641797152 91.20116015677316 110.07155899167823 0 0 0
160 54 1 0.7 105.48284307377544 40.143540944039614 122.4926464736893 0 0 0
161 54 2 -0.35 104.76263279858065 41.01300933961417 122.75895807426437 0 0 0
162 54 2 -0.35 106.20305334897023 39.27407254846506 122.22633487311424 0 0 0
163 55 1 0.7 53.90928329616286 83.32435860919038 72.49514466267783 0 0 0
164 55 2 -0.35 53.08603953461922 83.15743682870516 73.2951489303409 0 0 0
165 55 2 -0.35 54.732527057706506 83.49128038967561 71.69514039501476 0 0 0
166 56 1 0.7 65.89634562651457 49.880944830310035 109.0397630208357 0 0 0
167 56 2 -0.35 64.75728964094944 49.826066454188876 108.82730167003854 0 0 0
168 56 2 -0.35 67.03540161207971 49.935823206431195 109.25222437163285 0 0 0
169 57 1 0.7 21.29709118571928 50.21155838398801 75.6617596864988 0 0 0
170 57 2 -0.35 20.188749110734495 50.27931387451348 75.32621976589013 0 0 0
171 57 2 -0.35 22.40543326070407 50.14380289346255 75.99729960710746 0 0 0
172 58 1 0.7 117.19505098517755 67.22190787886358 98.60572006022824 0 0 0
173 58 2 -0.35 117.56809877716796 66.21325322300618 99.0405201638486 0 0 0
174 58 2 -0.35 116.82200319318713 68.23056253472097 98.17091995660788 0 0 0
175 59 1 0.7 26.337052256025864 126.83726702669509 13.946917664234954 0 0 0
176 59 2 -0.35 26.081015198804998 125.78050258658219 13.5428212110922 0 0 0
177 59 2 -0.35 26.59308931324673 127.89403146680799 14.351014117377709 0 0 0
178 60 1 0.7 15.845182796868114 69.98726696241054 35.995837233958696 0 0 0
179 60 2 -0.35 14.825375069108127 69.72199926728553 35.51083697795456 0 0 0
180 60 2 -0.35 16.8649905246281 70.25253465753556 36.48083748996283 0 0 0
181 61 1 0.7 92.03639114370402 115.6259522333862 85.37918652192653 0 0 0
182 61 2 -0.35 90.96601573740435 115.92064109447648 85.71542299338392 0 0 0
183 61 2 -0.35 93.1067665500037 115.33126337229592 85.04295005046913 0 0 0
184 62 1 0.7 27.987874018954052 52.19863656079333 62.48467725351671 0 0 0
185 62 2 -0.35 28.55192681445681 53.00974767822234 63.0925779025282 0 0 0
186 62 2 -0.35 27.423821223451295 51.387525443364325 61.87677660450522 0 0 0
187 63 1 0.7 39.97059985528262 75.87176773504902 6.800322968885453 0 0 0
188 63 2 -0.35 38.9067310580175 76.29695714529181 6.618671798718406 0 0 0
189 63 2 -0.35 41.034468652547744 75.44657832480623 6.9819741390525 0 0 0
190 64 1 0.7 23.028138057807524 23.916337571067892 1.8855569380733914 0 0 0
191 64 2 -0.35 23.068385387479587 24.82347698408639 1.1636994467340531 0 0 0
192 64 2 -0.35 22.98789072813546 23.009198158049394 2.6074144294127297 0 0 0
193 65 1 0.7 100.55545819949147 35.585958853171185 93.2104452481542 0 0 0
194 65 2 -0.35 100.82546645177341 34.97215253049544 94.15698491554429 0 0 0
195 65 2 -0.35 100.28544994720953 36.19976517584693 92.26390558076412 0 0 0
196 66 1 0.7 87.95328572762817 0.8732242467222848 116.27991466144096 0 0 0
197 66 2 -0.35 87.21047832505694 1.100051806253711 115.41829617224612 0 0 0
198 66 2 -0.35 88.6960931301994 0.6463966871908587 117.1415331506358 0 0 0
199 67 1 0.7 26.525714838190805 47.68928547282204 63.82094172007448 0 0 0
200 67 2 -0.35 26.129489336880216 46.69794063256262 63.36724494930992 0 0 0
201 67 2 -0.35 26.921940339501393 48.680630313081465 64.27463849083904 0 0 0
202 68 1 0.7 8.567489291805536 83.79252737564619 11.007602485365979 0 0 0
203 68 2 -0.35 7.912791333153721 84.4582304054977 10.31926386304142 0 0 0
204 68 2 -0.35 9.222187250457353 83.12682434579467 11.695941107690537 0 0 0
205 69 1 0.7 14.77497154603478 22.946774206565124 86.43408974000909 0 0 0
206 69 2 -0.35 13.672602776936674 23.00298435762188 86.79077379605211 0 0 0
207 69 2 -0.35 15.877340315132887 22.890564055508367 86.07740568396606 0 0 0
208 70 1 0.7 77.7462603327568 51.39741264348729 116.31429909091177 0 0 0
209 70 2 -0.35 76.63248996391168 51.475528949186995 115.99963513004809 0 0 0
210 70 2 -0.35 78.86003070160193 51.31929633778759 116.62896305177546 0 0 0
211 71 1 0.7 84.4248209541779 107.96577686814861 40.81182297356977 0 0 0
212 71 2 -0.35 85.46814212476036 107.52670087566896 41.06538402705091 0 0 0
213 71 2 -0.35 83.38149978359544 108.40485286062825 40.558261920088626 0 0 0
214 72 1 0.7 44.30871678716909 56.603041950894074 117.32606867669433 0 0 0
215 72 2 -0.35 43.15147231826136 56.62132477701748 117.40385670566675 0 0 0
216 72 2 -0.35 45.46596125607682 56.58475912477067 117.24828064772191 0 0 0
217 73 1 0.7 59.23624920157541 43.640330877918906 3.041065183021624 0 0 0
218 73 2 -0.35 59.18436206104293 44.73430565046806 3.4233306950330973 0 0 0
219 73 2 -0.35 59.28813634210789 42.54635610536975 2.658799671010151 0 0 0
220 74 1 0.7 21.182531044437795 74.79926386605914 51.22779685595436 0 0 0
221 74 2 -0.35 20.03318029924246 74.8948790791217 51.10349643137773 0 0 0
222 74 2 -0.35 22.33188178963313 74.70364865299658 51.35209728053099 0 0 0
223 75 1 0.7 125.58175802490756 102.6071246213313 67.94351071489207 0 0 0
224 75 2 -0.35 125.04446815604261 101.91480071452642 67.18350597485322 0 0 0
225 75 2 -0.35 126.1190478937725 103.29944852813617 68.70351545493092 0 0 0
226 76 1 0.7 6.584585191022877 37.12330552149718 61.395899803096384 0 0 0
227 76 2 -0.35 7.541999422948612 37.45197489109011 61.96241055674316 0 0 0
228 76 2 -0.35 5.627170959097143 36.79463615190425 60.82938904944961 0 0 0
229 77 1 0.7 70.88799064088984 94.45870143569014 7.395029644200126 0 0 0
230 77 2 -0.35 70.06846012224723 95.0642086574438 6.84065546242617 0 0 0
231 77 2 -0.35 71.70752115953245 93.85319421393649 7.949403825974082 0 0 0
232 78 1 0.7 8.263230071525662 40.10781213180526 41.998499250970085 0 0 0
233 78 2 -0.35 8.399182660071835 39.60055371627625 40.964185085185534 0 0 0
234 78 2 -0.35 8.127277482979489 40.61507054733427 43.032813416754635 0 0 0
235 79 1 0.7 98.77691105416832 43.544087406966874 75.4770488922843 0 0 0
236 79 2 -0.35 97.86397396508013 42.92027033254678 75.12633800133689 0 0 0
237 79 2 -0.35 99.68984814325651 44.16790448138697 75.82775978323171 0 0 0
238 80 1 0.7 2.76073262224008 119.63318198902215 94.88968949526999 0 0 0
239 80 2 -0.35 3.6958419711711024 119.04006755807194 95.23521196536478 0 0 0
240 80 2 -0.35 1.8256232733090574 120.22629641997236 94.5441670251752 0 0 0
241 81 1 0.7 101.01134700282074 27.70907640816135 46.447191967837135 0 0 0
242 81 2 -0.35 100.26734327549988 28.54486372788304 46.75299911282414 0 0 0
243 81 2 -0.35 101.7553507301416 26.873289088439662 46.14138482285013 0 0 0
244 82 1 0.7 117.95540343874852 106.46559504627511 47.25594274571908 0 0 0
245 82 2 -0.35 118.23080228655027 105.42589734593919 47.69043574513987 0 0 0
246 82 2 -0.35 117.68000459094677 107.50529274661103 46.82144974629829 0 0 0
247 83 1 0.7 60.62972730054973 63.8267403393177 106.0248829126474 0 0 0
248 83 2 -0.35 59.74644963883249 63.875364257093366 105.2745121463382 0 0 0
249 83 2 -0.35 61.513004962266976 63.77811642154204 106.7752536789566 0 0 0
250 84 1 0.7 50.20711286468762 0.9459168049254999 38.02374038287613 0 0 0
251 84 2 -0.35 51.358219274919804 0.8025815248780951 38.02073541763162 0 0 0
252 84 2 -0.35 49.05600645445544 1.0892520849729048 38.026745348120635 0 0 0
253 85 1 0.7 115.00461499905428 42.56428910538754 118.0069942483711 0 0 0
254 85 2 -0.35 115.91059261397372 41.88418930015208 117.75745704436419 0 0 0
255 85 2 -0.35 114.09863738413485 43.244388910622995 118.25653145237801 0 0 0
256 86 1 0.7 63.55233237312749 44.050195153826 1.6299503537034385 0 0 0
257 86 2 -0.35 62.91698171747614 44.36533541345634 2.54789161605279 0 0 0
258 86 2 -0.35 64.18768302877884 43.73505489419566 0.7120090913540871 0 0 0
259 87 1 0.7 94.57559469369035 22.020016853706917 110.42326025218854 0 0 0
260 87 2 -0.35 94.26215926281719 21.510978024978836 111.41736170652834 0 0 0
261 87 2 -0.35 94.8890301245635 22.529055682434997 109.42915879784874 0 0 0
262 88 1 0.7 3.7350585329043953 115.12876252416929 49.11174371331546 0 0 0
263 88 2 -0.35 3.7397092594029337 114.86990549363803 47.98100439389318 0 0 0
264 88 2 -0.35 3.730407806405857 115.38761955470055 50.242483032737745 0 0 0
265 89 1 0.7 51.076589692885335 54.242968323753665 101.56861732786922 0 0 0
266 89 2 -0.35 50.30049503277993 54.73563314388004 100.86111577058067 0 0 0
267 89 2 -0.35 51.85268435299074 53.75030350362729 102.27611888515777 0 0 0
268 90 1 0.7 33.7514294980799 70.27557422885465 71.5760643601306 0 0 0
269 90 2 -0.35 34.50556737232052 69.4998195277612 71.99449082961746 0 0 0
270 90 2 -0.35 32.99729162383928 71.0513289299481 71.15763789064374 0 0 0
271 91 1 0.7 88.91370071513285 22.56791923780363 89.01862976561236 0 0 0
272 91 2 -0.35 87.9076827215166 22.36942685500415 88.47629355025245 0 0 0
273 91 2 -0.35 89.9197187087491 22.766411620603108 89.56096598097227 0 0 0
274 92 1 0.7 96.11047064704377 78.6801648646035 17.530879391138853 0 0 0
275 92 2 -0.35 95.22449095584172 78.38766745466131 18.220143674236873 0 0 0
276 92 2 -0.35 96.99645033824582 78.97266227454568 16.841615108040834 0 0 0
277 93 1 0.7 61.48992687067479 91.20091543123168 113.78565271095636 0 0 0
278 93 2 -0.35 60.33093084811593 91.15372711534256 113.7957265650493 0 0 0
279 93 2 -0.35 62.64892289323365 91.2481037471208 113.7755788568634 0 0 0
280 94 1 0.7 95.46511304353602 22.154922709872444 37.78598482617456 0 0 0
281 94 2 -0.35 95.55456810180817 21.492625462138122 38.7341199158074 0 0 0
282 94 2 -0.35 95.37565798526387 22.817219957606767 36.83784973654173 0 0 0
283 95 1 0.7 19.046973515789478 62.4838798737544 26.569038190212584 0 0 0
284 95 2 -0.35 17.896081745973152 62.34518608892614 26.611607759379496 0 0 0
285 95 2 -0.35 20.197865285605804 62.62257365858265 26.526468621045673 0 0 0
286 96 1 0.7 125.82486290290247 28.470809081788552 108.88823762018617 0 0 0
287 96 2 -0.35 125.20668212267074 28.805935000786747 109.81081181306592 0 0 0
288 96 2 -0.35 126.44304368313419 28.135683162790357 107.96566342730642 0 0 0
289 97 1 0.7 74.60968246898133 114.93325616928433 13.236437162028828 0 0 0
290 97 2 -0.35 74.60168482049082 115.39472385567672 12.172208045703647 0 0 0
291 97 2 -0.35 74.61768011747185 114.47178848289195 14.30066627835401 0 0 0
292 98 1 0.7 34.799382218531974 3.2169468669299723 117.22599249203968 0 0 0
293 98 2 -0.35 34.50793181047299 2.633189926652569 118.18509858331437 0 0 0
294 98 2 -0.35 35.09083262659096 3.8007038072073756 116.26688640076499 0 0 0
295 99 1 0.7 67.2558137109763 18.461040378762895 94.70564586795197 0 0 0
296 99 2 -0.35 66.15851209339809 18.185388578050457 94.4496278122914 0 0 0
297 99 2 -0.35 68.35311532855451 18.736692179475334 94.96166392361255 0 0 0
298 100 1 0.7 127.79010266894014 38.255556876890154 111.14442989283447 0 0 0
299 100 2 -0.35 127.52251214925894 39.372430397788946 110.98136900821808 0 0 0
300 100 2 -0.35 128.05769318862133 37.13868335599136 111.30749077745085 0 0 0
301 101 1 0.7 34.43320886904058 88.94146196494877 99.15124489420617 0 0 0
302 101 2 -0.35 33.56207276594816 88.84609399210494 98.39122723675037 0 0 0
303 101 2 -0.35 35.304344972132995 89.0368299377926 99.91126255166198 0 0 0
304 102 1 0.7 94.97293692313737 70.15086716979317 55.62452271376947 0 0 0
305 102 2 -0.35 96.06825735396424 70.53271619576945 55.61649307030222 0 0 0
306 102 2 -0.35 93.8776164923105 69.7690181438169 55.632552357236726 0 0 0
307 103 1 0.7 51.35325032349362 24.078186957202007 122.08818969414018 0 0 0
308 103 2 -0.35 50.32714714413037 23.53850843730863 122.04998811738831 0 0 0
309 103 2 -0.35 52.379353502856866 24.617865477095386 122.12639127089206 0 0 0
310 104 1 0.7 16.20418941425355 123.81148535935743 119.63443472033107 0 0 0
311 104 2 -0.35 15.044594556199954 123.8333254747936 119.61292252533843 0 0 0
312 104 2 -0.35 17.363784272307143 123.78964524392127 119.65594691532371 0 0 0
313 105 1 0.7 115.94434460436196 106.59976551150892 92.25895193044978 0 0 0
314 105 2 -0.35 115.06440140493072 107.24582426301166 91.86664075882523 0 0 0
315 105 2 -0.35 116.8242878037932 105.95370676000618 92.65126310207434 0 0 0
316 106 1 0.7 86.20509506957843 129.0328344046291 124.84783860149227 0 0 0
317 106 2 -0.35 85.07506599611258 128.9542605864424 124.597917717576 0 0 0
318 106 2 -0.35 87.33512414304428 129.11140822281584 125.09775948540855 0 0 0
319 107 1 0.7 117.62337528058485 116.06834078955853 110.60365011012352 0 0 0
320 107 2 -0.35 118.32236779376197 115.15086274925864 110.72711472890074 0 0 0
321 107 2 -0.35 116.92438276740774 116.98581882985843 110.4801854913463 0 0 0
322 108 1 0.7 45.547400845935286 75.16601763440576 105.258381457654 0 0 0
323 108 2 -0.35 46.698453650466114 75.21034421705713 105.39517544601664 0 0 0
324 108 2 -0.35 44.39634804140446 75.1216910517544 105.12158746929136 0 0 0
325 109 1 0.7 37.61715879087204 41.58779818638591 86.12411858799128 0 0 0
326 109 2 -0.35 36.46925113025524 41.68899565248386 85.99120103628113 0 0 0
327 109 2 -0.35 38.76506645148884 41.48660072028796 86.25703613970143 0 0 0
328 110 1 0.7 68.06110836940869 33.048364651877606 83.86470410687136 0 0 0
329 110 2 -0.35 68.83235114698135 33.81358105197405 84.27118711889702 0 0 0
330 110 2 -0.35 67.28986559183602 32.283148251781164 83.4582210948457 0 0 0
331 111 1 0.7 54.081924187057616 124.89981187735675 81.13822273497388 0 0 0
332 111 2 -0.35 53.24307242026735 125.19256993928566 81.88402460580049 0 0 0
333 111 2 -0.35 54.92077595384788 124.60705381542785 80.39242086414727 0 0 0
334 112 1 0.7 120.10950670582685 40.47920483186804 43.995609206145446 0 0 0
335 112 2 -0.35 119.23427644630996 39.76438438750371 44.25753233445751 0 0 0
336 112 2 -0.35 120.98473696534373 41.19402527623237 43.73368607783338 0 0 0
337 113 1 0.7 124.20392768653292 85.41262755888171 70.03138212488562 0 0 0
338 113 2 -0.35 123.21177651558743 85.9893894733369 70.20044349843222 0 0 0
339 113 2 -0.35 125.19607885747841 84.83586564442652 69.86232075133903 0 0 0
340 114 1 0.7 127.43937295276642 123.54121714529639 127.23656099626635 0 0 0
341 114 2 -0.35 126.3567153834459 123.27884786929624 126.91311865116582 0 0 0
342 114 2 -0.35 128.52203052208694 123.80358642129653 127.56000334136688 0 0 0
343 115 1 0.7 94.88066424842955 79.32402335541511 48.860534461615856 0 0 0
344 115 2 -0.35 95.79428912944869 79.45836980134112 48.15850838713584 0 0 0
345 115 2 -0.35 93.96703936741042 79.1896769094891 49.56256053609587 0 0 0
346 116 1 0.7 119.00269637769213 28.31801987174806 10.95998446967452 0 0 0
347 116 2 -0.35 119.2317756402006 27.24298752597954 10.589271444491946 0 0 0
348 116 2 -0.35 118.77361711518367 29.39305221751658 11.330697494857095 0 0 0
349 117 1 0.7 124.45898181966459 82.10744310268547 29.796226834783436 0 0 0
350 117 2 -0.35 124.64950578180745 81.99576093758938 28.65744339889721 0 0 0
351 117 2 -0.35 124.26845785752172 82.21912526778155 30.93501027066966 0 0 0
352 118 1 0.7 25.18441220521201 124.41593299825486 8.58590166949942 0 0 0
353 118 2 -0.35 24.029820368310702 124.48872539751228 8.670866113658239 0 0 0
354 118 2 -0.35 26.339004042113316 124.34314059899744 8.5009372253406 0 0 0
355 119 1 0.7 3.249359276727475 11.981363958670462 0.7840533744469533 0 0 0
356 119 2 -0.35 4.246455000514595 12.407980255768372 1.1956340502031257 0 0 0
357 119 2 -0.35 2.2522635529403554 11.554747661572552 0.37247269869078103 0 0 0
358 120 1 0.7 47.58506432994504 2.176193386398346 45.28224519699917 0 0 0
359 120 2 -0.35 46.93301094424076 1.2917714761268853 45.65403043987921 0 0 0
360 120 2 -0.35 48.23711771564932 3.0606152966698064 44.91045995411913 0 0 0
361 121 1 0.7 38.695025964963726 87.30139314537001 94.51459423383446 0 0 0
362 121 2 -0.35 37.64968654139187 86.82060986896052 94.66194731541547 0 0 0
363 121 2 -0.35 39.74036538853558 87.78217642177951 94.36724115225344 0 0 0
364 122 1 0.7 36.78528805579305 100.33635371380316 123.09686788967664 0 0 0
365 122 2 -0.35 35.832144751765505 99.74611150279841 122.7989887626206 0 0 0
366 122 2 -0.35 37.7384313598206 100.92659592480791 123.3947470167327 0 0 0
367 123 1 0.7 69.05862179540965 28.25651544996375 17.255167540747284 0 0 0
368 123 2 -0.35 69.04962991973385 28.790896997533288 16.22562613420308 0 0 0
369 123 2 -0.35 69.06761367108545 27.722133902394212 18.284708947291488 0 0 0
370 124 1 0.7 107.60085733961354 17.609306884747607 79.62081195303277 0 0 0
371 124 2 -0.35 106.44877981163758 17.70644679062601 79.71505211548347 0 0 0
372 124 2 -0.35 108.7529348675895 17.512166978869203 79.52657179058207 0 0 0
373 125 1 0.7 96.98649462172132 112.01510727033723 107.90789255774948 0 0 0
374 125 2 -0.35 96.1075251248831 112.39479976726734 107.25302903654607 0 0 0
375 125 2 -0.35 97.86546411855954 111.6354147734071 108.56275607895289 0 0 0
376 126 1 0.7 107.95021809542096 39.315529740096785 116.10834180661865 0 0 0
377 126 2 -0.35 107.30608545847993 38.419973701173085 116.46705133698363 0 0 0
378 126 2 -0.35 108.594350732362 40.211085779020486 115.74963227625368 0 0 0
379 127 1 0.7 2.900743839750413 2.8017146851875423 28.418713947021736 0 0 0
380 127 2 -0.35 2.5502817094192687 3.7514984665437803 28.985006330756853 0 0 0
381 127 2 -0.35 3.2512059700815574 1.8519309038313043 27.85242156328662 0 0 0
382 128 1 0.7 13.325307594298064 98.44473736753908 50.700936229294605 0 0 0
383 128 2 -0.35 12.416868800681643 97.92072197857479 50.20520764389595 0 0 0
384 128 2 -0.35 14.233746387914485 98.96875275650336 51.19666481469326 0 0 0
385 129 1 0.7 110.63520575437472 55.903113775841476 53.63323056773899 0 0 0
386 129 2 -0.35 109.57470179441788 56.3679203590149 53.70313186353868 0 0 0
387 129 2 -0.35 111.69570971433157 55.43830719266805 53.5633292719393 0 0 0
388 130 1 0.7 123.70615198915179 39.29648167420947 55.96749843841768 0 0 0
389 130 2 -0.35 122.63631266166107 39.07028619927914 55.580355802590496 0 0 0
390 130 2 -0.35 124.77599131664252 39.522677149139795 56.35464107424486 0 0 0
391 131 1 0.7 95.74625448591367 67.29914475106594 96.72583116531644 0 0 0
392 131 2 -0.35 95.01622686069608 66.50979045193087 97.16123839637278 0 0 0