LAMMPS data file via write_data, version 29 Aug 2024, timestep = 4000000, units = real

1500 atoms
2 atom types
1000 bonds
1 bond types
500 angles
1 angle types

0 130 xlo xhi
0 130 ylo yhi
0 130 zlo zhi

Masses

1 12.0107
2 15.9994

PairIJ Coeffs # lj/cut/coul/long/gpu

1 1 0.053649 2.8 12
1 2 0.0917684 2.925 12
2 2 0.156973 3.05 12

Bond Coeffs # harmonic

1 0 1.16

Angle Coeffs # harmonic

1 0 180

Atoms # full

250 84 1 0.7 13.233807189492884 21.061130392630908 17.008478801077626 6 -1 -2
1238 413 2 -0.35 14.681913153860862 2.9303071932367537 4.1180946680213815 0 6 0
252 84 2 -0.35 13.239677522656754 22.11940040529764 16.533473412182822 6 -1 -2
1237 413 1 0.7 13.968251932991365 3.4690559466765754 3.379151204355548 0 6 0
1239 413 2 -0.35 13.25459071212187 4.007804700116397 2.6402077406897146 0 6 0
251 84 2 -0.35 13.227936856329015 20.00286037996418 17.48348418997243 6 -1 -2
31 11 1 0.7 0.7384815426528972 20.64935169868016 15.789739082821932 2 0 -1
33 11 2 -0.35 1.5882736419726102 21.032315982756394 16.48024016541199 2 0 -1
272 91 2 -0.35 28.24250698021328 129.91854633114028 8.971470772287086 3 2 5
536 179 2 -0.35 25.431522792826744 3.4170720764089513 14.444399783764213 -1 -2 -1
535 179 1 0.7 25.82360967241119 4.12129503926988 15.278628707643318 -1 -2 -1
537 179 2 -0.35 26.215696551995634 4.825518002130809 16.112857631522424 -1 -2 -1
1430 477 2 -0.35 40.0331381256786 0.7275640562520286 22.3817773119439 -2 1 2
1200 400 2 -0.35 27.62815983667919 8.44059858613464 16.088291194296687 1 0 0
1198 400 1 0.7 27.527704407127757 7.839198790968488 17.07511792328533 1 0 0
1405 469 1 0.7 40.753333455336524 15.851946336676683 4.643108370939735 -2 6 -3
1407 469 2 -0.35 40.26700644232231 15.274859513979143 3.7621674901308264 -2 6 -3
1199 400 2 -0.35 27.427248977576326 7.237798995802335 18.06194465227397 1 0 0
1406 469 2 -0.35 41.239660468350735 16.429033159374224 5.524049251748643 -2 6 -3
739 247 1 0.7 39.27164736828818 1.2330543672153618 1.4451277332131893 0 -2 -4
741 247 2 -0.35 39.68637219286743 2.0332275617857976 2.175419578002943 0 -2 -4
740 247 2 -0.35 38.85692254370892 0.43288117264492587 0.7148358884234354 0 -2 -4
694 232 1 0.7 44.99947729706901 14.954361399844927 0.42715270616926154 -1 0 9
695 232 2 -0.35 44.39887132654937 15.343401706447239 1.3401259303191162 -1 0 9
113 38 2 -0.35 90.94916900870837 10.894049735725707 19.858972675263775 1 -4 5
112 38 1 0.7 90.84728683304687 10.525689743148485 20.954203672884972 1 -4 5
768 256 2 -0.35 111.32946763068324 5.296413010066341 4.745896907112741 1 -1 4
766 256 1 0.7 112.41518073522812 5.469376956082811 4.375882680365158 1 -1 4
767 256 2 -0.35 113.500893839773 5.6423409020992805 4.005868453617575 1 -1 4
1102 368 1 0.7 123.5948003844056 0.44926757923814337 6.732671957170241 4 -1 2
1103 368 2 -0.35 123.27503159524767 1.4550525516440944 6.251273462404421 4 -1 2
1313 438 2 -0.35 125.0627481443192 0.8386447990766039 17.317023705894115 -2 -5 3
32 11 2 -0.35 129.88868944333316 20.26638741460393 15.099238000231873 1 0 -1
924 308 2 -0.35 110.18180565773794 5.6429687578589105 19.90699444714601 2 0 -4
922 308 1 0.7 110.62431049034691 5.854591896868394 20.95818668463286 2 0 -4
450 150 2 -0.35 0.5898230938738919 25.814727109200668 5.631870909221511 3 -1 0
448 150 1 0.7 1.3511476613679718 25.82294320918481 6.507037978204413 3 -1 0
449 150 2 -0.35 2.112472228862052 25.831159309168957 7.382205047187314 3 -1 0
1418 473 2 -0.35 0.33666191651069344 37.45267623583066 18.859510942281158 0 1 0
1417 473 1 0.7 0.724585448380287 36.664136073284254 18.102332135477155 0 1 0
1419 473 2 -0.35 1.1125089802498809 35.87559591073785 17.345153328673156 0 1 0
769 257 1 0.7 43.29768609451631 33.65327317728799 15.126818480957397 -1 -1 4
770 257 2 -0.35 42.406231634944376 33.79070947686139 15.856215636195394 -1 -1 4
1206 402 2 -0.35 43.96465092246488 38.37780521124173 19.821197575331944 0 7 3
771 257 2 -0.35 44.18914055408824 33.5158368777146 14.3974213257194 -1 -1 4
1205 402 2 -0.35 43.54156819267158 40.07378618065735 21.34666457108522 0 7 3
849 283 2 -0.35 59.56191822491076 23.171285234180967 4.597462953242342 -3 4 3
847 283 1 0.7 58.91751880438609 23.362878299706168 3.652136827468195 -3 4 3
848 283 2 -0.35 58.27311938386142 23.554471365231368 2.7068107016940477 -3 4 3
738 246 2 -0.35 54.5202732566497 27.04363007577713 7.954797911243237 0 3 4
736 246 1 0.7 55.06228749046739 26.122294221469108 7.504286186751403 0 3 4
737 246 2 -0.35 55.60430172428508 25.200958367161086 7.053774462259569 0 3 4
1204 402 1 0.7 43.75310955756823 39.22579569594954 20.583931073208582 0 7 3
1273 425 1 0.7 48.00005058060871 37.24239275740397 17.56429625395275 2 0 -2
1274 425 2 -0.35 47.668185441462406 38.21808567272191 18.096732977345116 2 0 -2
1275 425 2 -0.35 48.33191571975501 36.26669984208603 17.031859530560382 2 0 -2
872 291 2 -0.35 69.42201095288347 38.59705697656192 12.736451516580939 -6 -2 2
871 291 1 0.7 69.55700936035886 38.57184037372708 11.584609707598613 -6 -2 2
873 291 2 -0.35 69.69200776783426 38.54662377089223 10.432767898616287 -6 -2 2
368 123 2 -0.35 99.06966464130534 40.81746149860974 14.745026114939428 3 -6 -1
367 123 1 0.7 98.19732086045298 41.497172161269354 15.095182855661323 3 -6 -1
369 123 2 -0.35 97.32497707960061 42.17688282392896 15.445339596383217 3 -6 -1
463 155 1 0.7 90.46791365223642 35.62196760333911 4.499890236300948 1 -2 3
465 155 2 -0.35 91.59569515979481 35.35067172607334 4.489525961586619 1 -2 3
464 155 2 -0.35 89.34013214467804 35.89326348060488 4.510254511015277 1 -2 3
226 76 1 0.7 119.43521063096736 42.78005447375039 6.782555141174376 1 -6 -2
227 76 2 -0.35 119.56018104138248 43.87599695581473 6.423539163079501 1 -6 -2
228 76 2 -0.35 119.31024022055226 41.68411199168606 7.14157111926925 1 -6 -2
360 120 2 -0.35 123.31178217841632 40.85838031825599 12.818738172326176 -1 1 5
358 120 1 0.7 124.4483257058407 40.730499404643176 12.625049550553477 -1 1 5
359 120 2 -0.35 125.58486923326508 40.60261849103036 12.431360928780778 -1 1 5
1414 472 1 0.7 122.51322872213109 27.508607516014333 1.807657088572325 1 -1 6
1416 472 2 -0.35 122.63086128623343 28.575425841601728 2.2477266740396358 1 -1 6
1415 472 2 -0.35 122.39559615802875 26.441789190426938 1.3675875031050144 1 -1 6
132 44 2 -0.35 18.237194830280135 57.868766562056244 19.996314252248155 4 5 5
130 44 1 0.7 18.772148326735607 57.160894031435625 20.743536600029955 4 5 5
933 311 2 -0.35 1.7362485199456472 47.67552993567329 13.76256164756203 3 -5 -1
931 311 1 0.7 1.7616772012396835 47.31182612340479 12.661347354562018 3 -5 -1
932 311 2 -0.35 1.7871058825337198 46.94812231113629 11.560133061562004 3 -5 -1
131 44 2 -0.35 19.30710182319108 56.453021500815005 21.490758947811756 4 5 5
197 66 2 -0.35 42.30547437586239 63.05643214962027 6.616449475224705 3 0 0
196 66 1 0.7 43.314917609246415 62.78001136542219 6.116233613182075 3 0 0
198 66 2 -0.35 44.32436084263044 62.50359058122412 5.616017751139443 3 0 0
730 244 1 0.7 55.76395101291809 48.44639449558422 11.979289223580418 5 3 3
732 244 2 -0.35 54.737308674622 48.733367194390645 11.521848320996098 5 3 3
731 244 2 -0.35 56.790593351214184 48.1594217967778 12.436730126164736 5 3 3
1426 476 1 0.7 47.07309390354306 64.44756288865155 16.104433228691036 -4 2 -1
983 328 2 -0.35 56.24347468649838 44.221800601854106 21.436477648142308 0 -5 2
1428 476 2 -0.35 47.28276912020571 63.359531465045066 15.761178331035811 -4 2 -1
524 175 2 -0.35 85.49221762195032 47.220001549024374 6.642157004832194 -3 5 -4
523 175 1 0.7 85.43549024389786 46.60792104518679 7.625894501016772 -3 5 -4
525 175 2 -0.35 85.37876286584542 45.99584054134921 8.60963199720135 -3 5 -4
1265 422 2 -0.35 88.70624112431678 51.36642008204189 4.800032162531213 -2 1 -1
754 252 1 0.7 72.16293657369779 64.18315471792494 8.206347995985944 9 1 0
756 252 2 -0.35 71.33642364876775 64.10901118906781 7.395805509713529 9 1 0
380 127 2 -0.35 83.29180967263738 61.04080209141787 17.805426956460163 8 -2 1
381 127 2 -0.35 84.82562064516492 59.66378976421416 18.87016211192582 8 -2 1
379 127 1 0.7 84.05871515890115 60.352295927816016 18.33779453419299 8 -2 1
755 252 2 -0.35 72.98944949862782 64.25729824678204 9.016890482258358 9 1 0
1266 422 2 -0.35 88.31890839016481 50.987436870628 7.055856862840384 -2 1 -1
1264 422 1 0.7 88.5125747572408 51.17692847633495 5.927944512685799 -2 1 -1
944 315 2 -0.35 106.0944486770887 46.83505469660906 8.600383547996694 3 2 3
943 315 1 0.7 106.17056280875013 45.94825581082311 9.34428836390375 3 2 3
945 315 2 -0.35 106.24667694041155 45.061456925037156 10.088193179810808 3 2 3
216 72 2 -0.35 95.98501342857186 46.86901242996691 21.10482307041183 -1 2 2
630 210 2 -0.35 116.45762650663549 51.504564554073774 0.806928673998582 -2 -7 1
629 210 2 -0.35 118.28372455971599 50.11404059839387 1.1448769381176411 -2 -7 1
628 210 1 0.7 117.37067553317574 50.80930257623382 0.9759028060581161 -2 -7 1
30 10 2 -0.35 112.19597174273447 56.5850019420673 22.16877131163694 2 4 -5
28 10 1 0.7 113.25173260336878 56.11642237123971 22.275552353749497 2 4 -5
29 10 2 -0.35 114.30749346400307 55.64784280041212 22.38233339586205 2 4 -5
485 162 2 -0.35 121.98606342650612 55.2642345561429 17.388894647292997 -2 -1 7
484 162 1 0.7 123.02596458142398 55.22688556446638 16.876244044226265 -2 -1 7
486 162 2 -0.35 124.06586573634183 55.18953657278986 16.363593441159534 -2 -1 7
1306 436 1 0.7 127.25661171302124 46.99532764816519 18.399741204156715 3 -4 11
1308 436 2 -0.35 128.04048294046544 47.73214081696645 17.96586074473898 3 -4 11
1307 436 2 -0.35 126.47274048557703 46.258514479363924 18.83362166357445 3 -4 11
77 26 2 -0.35 13.229146136856505 67.56145934417762 13.738838116717849 -1 0 -3
78 26 2 -0.35 15.07854758733703 68.74681646576155 14.485191095720575 -1 0 -3
76 26 1 0.7 14.153846862096767 68.15413790496959 14.112014606219212 -1 0 -3
1284 428 2 -0.35 15.083647099397613 85.3314084623242 19.598891266442685 -2 0 -6
1282 428 1 0.7 15.233213168966548 85.44175523508294 18.453878785909694 -2 0 -6
1283 428 2 -0.35 15.382779238535486 85.55210200784167 17.308866305376704 -2 0 -6
1122 374 2 -0.35 31.070161770525424 79.91860137827904 13.669151001234159 -4 -4 -9
1120 374 1 0.7 31.51887377345418 80.28297675694576 12.663423343341695 -4 -4 -9
1121 374 2 -0.35 31.96758577638294 80.64735213561246 11.657695685449232 -4 -4 -9
578 193 2 -0.35 35.18462696269851 87.46094970783024 8.410457019915906 0 6 0
577 193 1 0.7 34.676085396734706 87.21242015704594 7.397926260840732 0 6 0
646 216 1 0.7 36.54049631426002 67.45622542749265 0.5740251723619318 -3 -4 1
579 193 2 -0.35 34.1675438307709 86.96389060626164 6.385395501765558 0 6 0
647 216 2 -0.35 37.619599452749334 67.8118934946632 0.3402803488942453 -3 -4 1
648 216 2 -0.35 35.4613931757707 67.10055736032211 0.8077699958296184 -3 -4 1
1229 410 2 -0.35 42.13733608522037 72.30785741752217 8.214670870230616 -7 2 12
1228 410 1 0.7 43.13240792086323 72.90109326692826 8.155482451688556 -7 2 12
1427 476 2 -0.35 46.863418686880415 65.53559431225803 16.44768812634626 -4 2 -1
1230 410 2 -0.35 44.12747975650609 73.49432911633433 8.096294033146494 -7 2 12
1013 338 2 -0.35 55.20089366735989 75.8804024209403 21.6059903284338 -1 7 -4
1012 338 1 0.7 54.560993539736465 74.91291328212301 21.596367806026688 -1 7 -4
882 294 2 -0.35 47.89493433674378 79.3316608239793 22.267935859690112 1 -5 7
880 294 1 0.7 47.29127270614808 80.19396596982045 21.78047050584363 1 -5 7
881 294 2 -0.35 46.687611075552375 81.05627111566162 21.293005151997153 1 -5 7
14 5 2 -0.35 51.74353587828475 82.07676196762831 22.138928948668987 5 -9 4
11 4 2 -0.35 79.40234584183864 85.64421837833481 19.29492267714132 -3 -2 4
10 4 1 0.7 80.4845733270475 85.669459281935 18.87809349504756 -3 -2 4
12 4 2 -0.35 81.56680081225636 85.69470018553521 18.461264312953794 -3 -2 4
1038 346 2 -0.35 88.7603664707996 80.44012103821808 19.865541151508364 1 -2 -4
1036 346 1 0.7 88.99635636847894 80.60807442849058 18.74228676051444 1 -2 -4
1037 346 2 -0.35 89.23234626615829 80.77602781876308 17.619032369520514 1 -2 -4
713 238 2 -0.35 103.5607254049 75.43693105219866 9.819647853799387 -6 -1 -2
712 238 1 0.7 103.8518765772101 74.76836630572322 8.917510295201627 -6 -1 -2
714 238 2 -0.35 104.14302774952021 74.09980155924777 8.015372736603867 -6 -1 -2
980 327 2 -0.35 100.28650034481582 87.94730003472372 6.1122080244899095 -3 7 -5
1449 483 2 -0.35 11.087772672410466 91.36450156831857 1.010521385385725 0 -1 -5
512 171 2 -0.35 0.6280299375644419 90.98543316986418 1.8110791366243086 6 -6 0
511 171 1 0.7 0.8057438311601706 90.44932574220346 0.7978631685161619 6 -6 0
1447 483 1 0.7 10.382902095446637 91.88429659325561 1.7711596711581465 0 -1 -5
1448 483 2 -0.35 9.678031518482808 92.40409161819264 2.531797956930568 0 -1 -5
927 309 2 -0.35 8.061660899062572 87.67201455824117 9.766161855686457 -5 6 -3
925 309 1 0.7 8.039103105892712 88.36034046117837 10.699595622652467 -5 6 -3
926 309 2 -0.35 8.016545312722851 89.04866636411558 11.633029389618477 -5 6 -3
206 69 2 -0.35 6.966595998593214 89.78640316040229 3.334184430475701 -1 -2 4
205 69 1 0.7 6.9742737689489225 88.67229382176774 3.6571417549146963 -1 -2 4
207 69 2 -0.35 6.981951539304631 87.55818448313319 3.9800990793536917 -1 -2 4
623 208 2 -0.35 19.82952637917018 107.6616083109153 2.3639728303959933 -3 -2 -5
622 208 1 0.7 20.573085717872026 108.50746111414112 2.0860294097091217 -3 -2 -5
624 208 2 -0.35 21.316645056573872 109.35331391736695 1.80808598902225 -3 -2 -5
1393 465 1 0.7 15.56252277131236 96.31715400163068 8.465094964808534 -7 1 -3
1395 465 2 -0.35 16.472236772057002 96.3468912377632 9.184216744226212 -7 1 -3
1394 465 2 -0.35 14.65280877056772 96.28741676549818 7.745973185390855 -7 1 -3
414 138 2 -0.35 20.56164860275234 106.22657725731236 7.323620182462276 1 -4 0
495 165 2 -0.35 34.508401937357895 102.4566015235109 18.499870209664834 1 -5 5
493 165 1 0.7 35.34803435411217 103.01202223591591 17.923567132311213 1 -5 5
412 138 1 0.7 21.70796754473448 106.2860061166576 7.156225158851832 1 -4 0
494 165 2 -0.35 36.18766677086645 103.56744294832092 17.34726405495759 1 -5 5
413 138 2 -0.35 22.85428648671662 106.34543497600285 6.988830135241387 1 -4 0
150 50 2 -0.35 52.83595091583781 103.27959659172792 6.767179761876012 -1 0 4
148 50 1 0.7 51.97432269761817 102.52308115133556 6.942910243055575 -1 0 4
149 50 2 -0.35 51.11269447939853 101.76656571094321 7.1186407242351395 -1 0 4
542 181 2 -0.35 53.68853748131686 103.22120551834442 14.747631440484863 2 2 1
541 181 1 0.7 53.33817941300976 102.65199490629462 13.799555228830691 2 2 1
543 181 2 -0.35 52.98782134470266 102.08278429424482 12.851479017176521 2 2 1
750 250 2 -0.35 63.042751021967334 108.16724447076135 12.132083137859107 -1 -1 5
748 250 1 0.7 63.60152111684898 109.17250880523812 11.981021564672595 -1 -1 5
419 140 2 -0.35 62.75692460613964 97.02789267182013 10.887728845215026 4 -1 8
418 140 1 0.7 62.42031158794343 97.47444724452966 9.87142146574074 4 -1 8
420 140 2 -0.35 62.08369856974722 97.9210018172392 8.855114086266454 4 -1 8
362 121 2 -0.35 63.8394122712814 108.23184385208549 5.841123526448871 -5 -5 -2
361 121 1 0.7 64.94761592475575 108.27405766332492 6.181274458486543 -5 -5 -2
282 94 2 -0.35 61.81297341555901 105.35452246512892 2.064954727321261 -2 0 -9
280 94 1 0.7 62.181780090368775 106.45035955603132 1.9715592947883607 -2 0 -9
281 94 2 -0.35 62.55058676517855 107.54619664693371 1.8781638622554597 -2 0 -9
363 121 2 -0.35 66.0558195782301 108.31627147456436 6.521425390524215 -5 -5 -2
1432 478 1 0.7 86.38104481737015 94.33048798235072 10.481741600253743 -2 -2 -4
1434 478 2 -0.35 87.15192842342513 94.8970245375992 9.825712029667079 -2 -2 -4
753 251 2 -0.35 81.42755857043228 97.08160977673894 2.9343132097354823 0 -1 6
751 251 1 0.7 82.1125715560591 97.74775556604716 3.5920418748463705 0 -1 6
752 251 2 -0.35 82.79758454168591 98.41390135535539 4.249770539957259 0 -1 6
1433 478 2 -0.35 85.61016121131517 93.76395142710224 11.137771170840407 -2 -2 -4
979 327 1 0.7 100.3423919478461 88.09120791252782 7.26188913306566 -3 7 -5
981 327 2 -0.35 100.39828355087639 88.2351157903319 8.41157024164141 -3 7 -5
208 70 1 0.7 100.0943143925052 92.62167940521869 1.321390230283496 -2 0 -1
209 70 2 -0.35 99.51553270376138 93.57445521485829 1.642061422223833 -2 0 -1
210 70 2 -0.35 100.67309608124903 91.66890359557908 1.000719038343159 -2 0 -1
513 171 2 -0.35 0.9834577247558991 89.91321831454273 129.78464720040802 6 -6 -1
645 215 2 -0.35 127.97795921000264 90.97265133362271 17.23454191006095 2 1 -7
477 159 2 -0.35 121.3387843355788 92.62734815001299 17.877733389913583 0 4 2
476 159 2 -0.35 120.08525435014374 91.62818555477473 19.554854937054923 0 4 2
475 159 1 0.7 120.71201934286127 92.12776685239386 18.716294163484253 0 4 2
974 325 2 -0.35 122.02448730477865 100.93761278097783 4.70754262136265 0 -2 4
973 325 1 0.7 123.00812092181664 100.55981919926862 5.192657986046242 0 -2 4
1148 383 2 -0.35 119.21184846405899 107.20327098243872 15.575136862864536 -2 -6 -4
975 325 2 -0.35 123.99175453885464 100.18202561755942 5.677773350729833 0 -2 4
1147 383 1 0.7 120.03808294131187 106.6661649343443 14.963210656775331 -2 -6 -4
1149 383 2 -0.35 120.86431741856475 106.12905888624987 14.351284450686126 -2 -6 -4
643 215 1 0.7 128.13262572865062 91.10907390114916 18.376061577469418 2 1 -7
644 215 2 -0.35 128.28729224729864 91.24549646867563 19.517581244877885 2 1 -7
233 78 2 -0.35 17.551221900482467 125.49661397788857 11.966911762529719 1 -10 5
232 78 1 0.7 17.05631250361889 126.50566757464875 12.254097290999336 1 -10 5
234 78 2 -0.35 16.56140310675531 127.51472117140894 12.541282819468952 1 -10 5
313 105 1 0.7 16.580221362811105 116.76564902256592 20.05901740806373 -3 0 -3
314 105 2 -0.35 17.118756190569346 117.78995669539943 20.138854934742664 -3 0 -3
1008 336 2 -0.35 22.542016797220352 128.74542552543636 15.994864065966535 -3 -1 5
315 105 2 -0.35 16.041686535052865 115.74134134973242 19.979179881384795 -3 0 -3
271 91 1 0.7 28.47954395720873 128.90660316797212 8.4563159353196 3 2 5
273 91 2 -0.35 28.716580934204174 127.89466000480394 7.941161098352114 3 2 5
1007 336 2 -0.35 23.04063645842292 126.86205058031204 17.25449784193167 -3 -1 5
1006 336 1 0.7 22.791326627821636 127.8037380528742 16.624680953949103 -3 -1 5
928 310 1 0.7 23.306783297048028 123.0164445268061 19.907583602795583 -1 4 0
930 310 2 -0.35 23.126802824928244 123.82351750811156 20.72111923969331 -1 4 0
929 310 2 -0.35 23.486763769167812 122.20937154550063 19.094047965897857 -1 4 0
582 194 2 -0.35 25.123244042599076 112.04406057301749 22.21444434411647 3 7 -1
1311 437 2 -0.35 25.196215390694807 110.01489775730587 129.16744035917944 -2 5 -6
749 250 2 -0.35 64.16029121173062 110.1777731397149 11.829959991486083 -1 -1 5
188 63 2 -0.35 46.54593536211226 117.52176614053685 1.5636957125742887 3 -4 -1
1196 399 2 -0.35 51.66805542466385 127.90709095168675 0.3390398779791082 6 8 1
187 63 1 0.7 45.45583053959591 117.74749842630025 1.8897576868804915 3 -4 -1
189 63 2 -0.35 44.36572571707956 117.97323071206365 2.215819661186694 3 -4 -1
839 280 2 -0.35 88.51743995707955 126.37309870224485 0.009523270964019614 2 6 3
838 280 1 0.7 87.88916864226533 125.58769740415413 0.5874678668695775 2 6 3
840 280 2 -0.35 87.26089732745112 124.80229610606342 1.1654124627751354 2 6 3
1104 368 2 -0.35 123.91456917356354 129.4434826068322 7.214070451936059 4 -2 2
1373 458 2 -0.35 119.54204286384744 109.26826942446617 8.766056117536237 1 -2 3
1372 458 1 0.7 119.31730433126674 110.0301272533064 7.920677361824916 1 -2 3
1374 458 2 -0.35 119.09256579868602 110.79198508214664 7.075298606113595 1 -2 3
458 153 2 -0.35 111.99427431365721 117.21871705182372 3.0456158172138323 4 1 1
459 153 2 -0.35 110.74538460431295 116.79131937522666 4.953495719077215 4 1 1
457 153 1 0.7 111.36982945898508 117.00501821352519 3.9995557681455236 4 1 1
1132 378 1 0.7 118.76706398893921 124.93609493277674 13.803402009631034 1 4 4
1134 378 2 -0.35 119.05926169838254 124.64945767537372 12.718017478110927 1 4 4
1133 378 2 -0.35 118.4748662794959 125.22273219017976 14.888786541151143 1 4 4
1314 438 2 -0.35 125.86272012954646 128.88652173696295 16.35179815027916 -2 -6 3
1312 438 1 0.7 125.46273413693282 129.86258326801976 16.834410928086637 -2 -6 3
806 269 2 -0.35 124.07429409998066 116.73217913913248 18.11891265924729 -5 8 -5
805 269 1 0.7 125.21676409402149 116.57548160140678 18.24464330145007 -5 8 -5
807 269 2 -0.35 126.35923408806232 116.41878406368109 18.37037394365285 -5 8 -5
702 234 2 -0.35 113.87306983469031 112.50627653812624 0.6178576325611065 2 -6 -2
1429 477 1 0.7 38.981722326041606 0.5663768069075152 22.84453371322037 -2 1 2
1431 477 2 -0.35 37.93030652640462 0.405189557563002 23.307290114496833 -2 1 2
888 296 2 -0.35 32.61741923674228 18.200380607306105 27.76807245752956 4 3 2
886 296 1 0.7 33.23573537420515 19.124514525222096 28.098619966836175 4 3 2
883 295 1 0.7 36.0610807041282 6.975112307450392 42.560685697003656 -4 -1 1
884 295 2 -0.35 36.198062983390976 8.084427029113954 42.25043305243076 -4 -1 1
885 295 2 -0.35 35.924098424865434 5.865797585786827 42.870938341576554 -4 -1 1
1032 344 2 -0.35 35.20212965565318 16.472930867876965 42.73887574626287 1 -3 3
1030 344 1 0.7 36.20714986490574 16.310593367433107 42.18283535659507 1 -3 3
1031 344 2 -0.35 37.212170074158294 16.14825586698925 41.62679496692727 1 -3 3
385 129 1 0.7 31.87199066166474 6.293996142615345 39.2654113107979 -2 -3 -2
387 129 2 -0.35 32.118956425616645 6.835125547512291 40.26129628336829 -2 -3 -2
386 129 2 -0.35 31.625024897712837 5.752866737718398 38.26952633822752 -2 -3 -2
887 296 2 -0.35 33.85405151166802 20.04864844313809 28.429167476142787 4 3 2
1461 487 2 -0.35 36.57013679123514 19.08803275274527 42.16252636897239 0 -3 8
1459 487 1 0.7 36.15217091716151 20.124326601067963 41.85107880029017 0 -3 8
1460 487 2 -0.35 35.73420504308788 21.160620449390656 41.53963123160794 0 -3 8
507 169 2 -0.35 65.51789922454992 8.433201620034897 23.806554007162124 1 -2 1
850 284 1 0.7 45.57312580011752 8.239471621491951 25.932209425281645 -6 2 2
851 284 2 -0.35 45.62607975829237 8.750838552210297 24.892353790840538 -6 2 2
852 284 2 -0.35 45.52017184194267 7.728104690773606 26.972065059722755 -6 2 2
505 169 1 0.7 65.97492823665343 7.540286699941368 23.223950001366596 1 -2 1
506 169 2 -0.35 66.43195724875692 6.647371779847839 22.641345995571065 1 -2 1
516 172 2 -0.35 78.16383019251904 18.78712141576122 38.11627269819942 -8 -5 0
514 172 1 0.7 78.44060837054298 17.68331753815397 38.341241229216585 -8 -5 0
515 172 2 -0.35 78.7173865485669 16.579513660546713 38.566209760233754 -8 -5 0
114 38 2 -0.35 90.74540465738536 10.157329750571263 22.049434670506173 1 -4 5
608 203 2 -0.35 89.53207123200968 11.610717893250417 33.96214956174751 -2 -4 3
607 203 1 0.7 88.39265395086849 11.589258266686565 33.74565996877944 -2 -4 3
609 203 2 -0.35 87.2532366697273 11.567798640122714 33.529170375811375 -2 -4 3
803 268 2 -0.35 96.37293967724858 16.05483760925401 34.34864644907023 1 0 1
802 268 1 0.7 97.36614091781455 15.816889750454733 33.798617256908344 1 0 1
804 268 2 -0.35 98.35934215838051 15.578941891655454 33.24858806474646 1 0 1
998 333 2 -0.35 103.3933001073839 4.467672836599736 27.66862657533626 1 6 -1
997 333 1 0.7 102.6064617847167 5.265138022724054 27.96951647363855 1 6 -1
999 333 2 -0.35 101.8196234620495 6.0626032088483734 28.27040637194084 1 6 -1
923 308 2 -0.35 111.06681532295589 6.066215035877878 22.00937892211971 2 0 -4
1391 464 2 -0.35 121.6273768868409 3.0291618315087687 29.101319704471475 3 3 1
1390 464 1 0.7 121.40367442224351 3.744821483830723 29.986412055229824 3 3 1
1392 464 2 -0.35 121.17997195764612 4.460481136152677 30.871504405988173 3 3 1
345 115 2 -0.35 0.22869759627056835 34.49060981520985 22.162355303798165 3 3 2
343 115 1 0.7 0.4840958843274341 33.83277380773497 23.08302001026055 3 3 2
344 115 2 -0.35 0.7394941723842998 33.17493780026008 24.003684716722937 3 3 2
220 74 1 0.7 43.98381751154483 42.79661811428801 35.352968331520074 7 1 2
221 74 2 -0.35 44.05829427061968 43.51652772278739 34.44644565229571 7 1 2
222 74 2 -0.35 43.90934075246997 42.07670850578864 36.25949101074443 7 1 2
1496 499 2 -0.35 51.77638725948972 41.16251027705841 35.95463260732384 1 -5 -1
1495 499 1 0.7 51.96172355753131 42.24385887303349 36.331376115046645 1 -5 -1
1497 499 2 -0.35 52.14705985557289 43.32520746900856 36.70811962276945 1 -5 -1
1357 453 1 0.7 64.5890532122981 26.581743763827582 31.990476342371718 4 -2 -1
1359 453 2 -0.35 65.09171386622401 27.125190362002193 32.88355979979596 4 -2 -1
1358 453 2 -0.35 64.08639255837218 26.038297165652974 31.097392884947475 4 -2 -1
1074 358 2 -0.35 78.33097673502608 32.221279061915865 36.8438514308218 6 5 0
1072 358 1 0.7 78.82360004959315 33.250703200145566 36.635985576058154 6 5 0
1073 358 2 -0.35 79.31622336416024 34.280127338375266 36.42811972129451 6 5 0
1151 384 2 -0.35 75.47314249195918 33.75852410138565 32.22833904302237 -1 6 3
1150 384 1 0.7 76.07056303575165 32.86979463114409 31.7824145846468 -1 6 3
1152 384 2 -0.35 76.6679835795441 31.98106516090252 31.336490126271226 -1 6 3
67 23 1 0.7 70.6026772070468 28.65010336010334 25.526420736112982 -1 2 3
69 23 2 -0.35 70.255307429189 27.549239814535746 25.41225554232614 -1 2 3
68 23 2 -0.35 70.9500469849046 29.750966905670936 25.64058592989982 -1 2 3
681 227 2 -0.35 83.83368874407323 34.84046803410203 37.382808161277985 -6 3 -6
679 227 1 0.7 84.16701032250903 33.835062435139655 37.85573131245899 -6 3 -6
680 227 2 -0.35 84.50033190094484 32.82965683617728 38.32865446363999 -6 3 -6
576 192 2 -0.35 102.32978264835131 41.18604819160547 22.458735744857208 -5 1 0
574 192 1 0.7 102.90394143878748 42.18263782108102 22.60956940749605 -5 1 0
1142 381 2 -0.35 100.65316779316612 24.865943686049448 29.418307620433417 1 -2 6
1141 381 1 0.7 99.86780744938991 25.7196161451147 29.42555075901764 1 -2 6
1143 381 2 -0.35 99.08244710561371 26.573288604179954 29.43279389760186 1 -2 6
650 217 2 -0.35 95.54735497799014 36.819132230598875 32.4997340136288 3 -1 5
649 217 1 0.7 94.43214286477799 36.598870176838844 32.73078935378904 3 -1 5
651 217 2 -0.35 93.31693075156585 36.378608123078806 32.96184469394928 3 -1 5
1156 386 1 0.7 121.89939394295895 31.792459365137468 34.49427016372283 -1 -2 0
1158 386 2 -0.35 122.52136800875977 30.84694479461351 34.23980904999697 -1 -2 0
1157 386 2 -0.35 121.27741987715814 32.73797393566142 34.74873127744869 -1 -2 0
502 168 1 0.7 115.94584461597915 23.99616600152104 41.71171952048595 6 2 3
504 168 2 -0.35 115.03717076471263 23.313049101897562 41.48093145001479 6 2 3
503 168 2 -0.35 116.8545184672457 24.679282901144518 41.9425075909571 6 2 3
264 88 2 -0.35 9.266739866990664 48.45829330799906 22.542040428396604 3 -5 -2
262 88 1 0.7 9.109125238806126 47.38251994225374 22.946353790203784 3 -5 -2
46 16 1 0.7 19.009049316163782 53.289293685838054 43.72479391762887 1 -5 0
48 16 2 -0.35 18.09509787488557 53.460893748040064 43.031363184507654 1 -5 0
263 88 2 -0.35 8.951510610621588 46.30674657650842 23.35066715201096 3 -5 -2
865 289 1 0.7 19.77652025413493 56.96855856360607 39.10251167079154 1 6 2
867 289 2 -0.35 19.98048562536651 56.76578619231437 40.226291672739826 1 6 2
521 174 2 -0.35 18.470568579615694 53.260978454788 23.937514723386357 0 -5 4
520 174 1 0.7 17.636045059016325 53.54458778942371 23.18336869052937 0 -5 4
522 174 2 -0.35 16.80152153841696 53.828197124059415 22.429222657672383 0 -5 4
866 289 2 -0.35 19.57255488290335 57.17133093489776 37.97873166884326 1 6 2
1488 496 2 -0.35 23.90172904344754 57.12575468164716 41.23186752772674 5 3 1
333 111 2 -0.35 33.0892037057656 53.052469626619356 32.75206294640169 4 3 3
331 111 1 0.7 32.56385420649447 52.02162886239394 32.83558074346046 4 3 3
332 111 2 -0.35 32.03850470722334 50.99078809816853 32.91909854051923 4 3 3
294 98 2 -0.35 41.84076792429488 63.891909911463685 35.3634033880797 4 3 -3
293 98 2 -0.35 39.566468637083034 63.49732003066899 35.13046224065846 4 3 -3
292 98 1 0.7 40.70361828068896 63.694614971066336 35.24693281436908 4 3 -3
1347 449 2 -0.35 38.91067422051553 49.28282707617632 32.70521438839379 -4 1 -1
1345 449 1 0.7 39.56199445688584 48.367187528739535 32.99328758892771 -4 1 -1
1346 449 2 -0.35 40.213314693256144 47.45154798130275 33.28136078946162 -4 1 -1
1487 496 2 -0.35 24.451867567827737 57.3090135641994 38.985500730882464 5 3 1
1486 496 1 0.7 24.17679830563764 57.21738412292328 40.108684129304606 5 3 1
984 328 2 -0.35 56.04027140799397 46.52130730253956 21.667513059091174 0 -5 2
982 328 1 0.7 56.14187304724617 45.371553952196834 21.55199535361674 0 -5 2
1163 388 2 -0.35 44.76923327637553 52.631241816255375 40.59103629393107 -3 -4 4
1162 388 1 0.7 45.80326523284517 52.120089075758735 40.71392156107664 -3 -4 4
1164 388 2 -0.35 46.83729718931482 51.60893633526209 40.836806828222215 -3 -4 4
1119 373 2 -0.35 57.365579810879886 53.13945781449731 29.80105472941722 -6 -1 3
1117 373 1 0.7 58.444332860108155 52.88312497394127 30.141914427288665 -6 -1 3
1118 373 2 -0.35 59.52308590933642 52.62679213338523 30.48277412516011 -6 -1 3
1247 416 2 -0.35 70.93163683462157 58.53710774247384 37.33961716596703 4 2 -2
1246 416 1 0.7 71.49596335111787 57.83529059638774 38.07077260514404 4 2 -2
1248 416 2 -0.35 72.06028986761417 57.133473450301636 38.801928044321066 4 2 -2
98 33 2 -0.35 77.04265049610764 66.04546442287975 44.480706856060806 2 5 -1
705 235 2 -0.35 81.40531432178388 54.884749653720704 29.28926079488463 -6 -1 1
703 235 1 0.7 80.34784436863775 54.92955452049416 28.814550544199417 -6 -1 1
704 235 2 -0.35 79.29037441549163 54.974359387267604 28.339840293514207 -6 -1 1
795 265 2 -0.35 78.74650000735743 58.744973552204286 34.21061703963164 0 0 -8
793 265 1 0.7 79.47214841019071 58.66627612209194 35.11219405240323 0 0 -8
794 265 2 -0.35 80.197796813024 58.58757869197961 36.01377106517483 0 0 -8
382 128 1 0.7 84.65066347262855 58.4826816383045 37.55423784888471 -1 2 -4
383 128 2 -0.35 84.2545530570854 57.84449634920771 38.438215266853504 -1 2 -4
384 128 2 -0.35 85.0467738881717 59.12086692740129 36.67026043091592 -1 2 -4
575 192 2 -0.35 103.47810022922366 43.17922745055658 22.760403070134892 -5 1 0
215 72 2 -0.35 97.5899253617078 47.4167649634018 22.688055475645456 -1 2 2