LAMMPS (29 Aug 2024 - Update 1)
  using 1 OpenMP thread(s) per MPI task
package gpu 1 gpuID 0
# GCMC for CO2 molecular fluid, rigid/small/nvt dynamics
# Rigid CO2 TraPPE model
# [Potoff and J.I. Siepmann, Vapor-liquid equilibria of
# mixtures containing alkanes, carbon dioxide and
# nitrogen AIChE J., 47,1676-1682 (2001)].

# global model settings

units           real
atom_style      full
boundary        p p p
pair_style      lj/cut/coul/long  12
pair_modify     mix arithmetic shift yes
kspace_style    pppm 1.0e-4
bond_style      harmonic
angle_style     harmonic
neigh_modify    one 4000

# box, start molecules on simple cubic lattice
region          mbox block 0 ${lbox} 0 ${lbox} 0 ${lbox} units box
region          mbox block 0 130 0 ${lbox} 0 ${lbox} units box
region          mbox block 0 130 0 130 0 ${lbox} units box
region          mbox block 0 130 0 130 0 130 units box
create_box      2 mbox                                       bond/types 1                                angle/types 1                               extra/bond/per/atom 2                       extra/angle/per/atom 1                      extra/special/per/atom 2
Created orthogonal box = (0 0 0) to (130 130 130)
  1 by 1 by 1 MPI processor grid
molecule        co2mol ../CO2.txt
Read molecule template co2mol:
# CO2 molecule file. TraPPE model.
  1 molecules
  0 fragments
  3 atoms with max type 2
  2 bonds with max type 1
  1 angles with max type 1
  0 dihedrals with max type 0
  0 impropers with max type 0
create_atoms   	0 random ${nmols} 34578 mbox mol co2mol 464563 overlap 1.2
create_atoms   	0 random 500 34578 mbox mol co2mol 464563 overlap 1.2
Created 1500 atoms
  using lattice units in orthogonal box = (0 0 0) to (130 130 130)
  create_atoms CPU = 0.008 seconds

# rigid CO2 TraPPE model

pair_coeff      1   1  0.053649   2.800
pair_coeff      2   2  0.156973   3.050
bond_coeff      1       0       1.16
angle_coeff     1       0       180

# masses

mass 1 12.0107
mass 2 15.9994

write_data init_conf.data  pair ij
System init for write_data ...
PPPM initialization ...
  using 12-bit tables for long-range coulomb (src/kspace.cpp:342)
  G vector (1/distance) = 0.163967
  grid = 27 27 27
  stencil order = 5
  estimated absolute RMS force accuracy = 0.036150669
  estimated relative force accuracy = 0.00010886667
  using double precision FFTW3
  3d grid and FFT values/proc = 32768 19683
Generated 1 of 1 mixed pair_coeff terms from arithmetic mixing rule

# MD settings

group           co2 type 1 2
1500 atoms in group co2
velocity       	all create 300 54654
timestep        0.25

# rigid constraints with thermostat
fix             myrigidnvt co2 rigid/nvt molecule temp 300 300 $(100*dt)
fix             myrigidnvt co2 rigid/nvt molecule temp 300 300 25
  500 rigid bodies with 1500 atoms

thermo 1000
thermo_style custom step temp density press ke pe etotal


variable    mvol equal vol
variable    mden equal density
variable	mtmp equal temp
variable    mpre equal press

fix mydat all ave/time 1 4000 4000 v_mtmp v_mden v_mpre file statistics.dat ## every 1ps

run 4000000 ## 1ns

CITE-CITE-CITE-CITE-CITE-CITE-CITE-CITE-CITE-CITE-CITE-CITE-CITE

Your simulation uses code contributions which should be cited:

- GPU package (short-range, long-range and three-body potentials): doi:10.1016/j.cpc.2010.12.021, doi:10.1016/j.cpc.2011.10.012, doi:10.1016/j.cpc.2013.08.002, doi:10.1016/j.commatsci.2014.10.068, doi:10.1016/j.cpc.2016.10.020, doi:10.3233/APC200086

@Article{Brown11,
 author = {W. M. Brown and P. Wang and S. J. Plimpton and A. N. Tharrington},
 title = {Implementing Molecular Dynamics on Hybrid High Performance Computers---Short Range Forces},
 journal = {Comput.\ Phys.\ Commun.},
 year =    2011,
 volume =  182,
 pages =   {898--911},
 doi =     {10.1016/j.cpc.2010.12.021}
}

@Article{Brown12,
 author = {W. M. Brown and A. Kohlmeyer and S. J. Plimpton and A. N. Tharrington},
 title = {Implementing Molecular Dynamics on Hybrid High Performance Computers - Particle-Particle Particle-Mesh},
 journal = {Comput.\ Phys.\ Commun.},
 year =    2012,
 volume =  183,
 doi =     {10.1016/j.cpc.2011.10.012},
 pages =   {449--459}
}

@Article{Brown13,
 author = {W. M. Brown and Y. Masako},
 title = {Implementing Molecular Dynamics on Hybrid High Performance Computers---Three-Body Potentials},
 journal = {Comput.\ Phys.\ Commun.},
 year =    2013,
 volume =  184,
 pages =   {2785--2793},
 doi =     {10.1016/j.cpc.2013.08.002},
}

@Article{Trung15,
 author = {T. D. Nguyen and S. J. Plimpton},
 title = {Accelerating Dissipative Particle Dynamics Simulations for Soft Matter Systems},
 journal = {Comput.\ Mater.\ Sci.},
 year =    2015,
 doi =     {10.1016/j.commatsci.2014.10.068},
 volume =  100,
 pages =   {173--180}
}

@Article{Trung17,
 author = {T. D. Nguyen},
 title = {{GPU}-Accelerated {T}ersoff Potentials for Massively Parallel
    Molecular Dynamics Simulations},
 journal = {Comput.\ Phys.\ Commun.},
 year =    2017,
 doi =     {10.1016/j.cpc.2016.10.020},
 volume =  212,
 pages =   {113--122}
}

@inproceedings{Nikolskiy19,
 author = {V. Nikolskiy and V. Stegailov},
 title = {{GPU} Acceleration of Four-Site Water Models in {LAMMPS}},
 booktitle = {Proceedings of the International Conference on Parallel
    Computing (ParCo 2019), Prague, Czech Republic},
 doi =     {10.3233/APC200086},
 year =    2019
}

CITE-CITE-CITE-CITE-CITE-CITE-CITE-CITE-CITE-CITE-CITE-CITE-CITE

PPPM initialization ...
  using 12-bit tables for long-range coulomb (src/kspace.cpp:342)
  G vector (1/distance) = 0.163967
  grid = 27 27 27
  stencil order = 5
  estimated absolute RMS force accuracy = 0.036150669
  estimated relative force accuracy = 0.00010886667
  using double precision FFTW3
  3d grid and FFT values/proc = 32768 19683
Generated 1 of 1 mixed pair_coeff terms from arithmetic mixing rule
Per MPI rank memory allocation (min/avg/max) = 10.39 | 10.39 | 10.39 Mbytes
   Step          Temp         Density         Press          KinEng         PotEng         TotEng    
         0   307.41471      0.016631654   -194.39631      762.70438      45585.431      46348.135    
      1000   306.52332      0.016631654    12.521776      760.49281     -20.033507      740.4593     
      2000   318.66911      0.016631654    14.114243      790.62684     -27.92237       762.70447    
      3000   295.68985      0.016631654    18.54989       733.61467     -32.89954       700.71513    
      4000   306.67163      0.016631654    10.021181      760.86077     -39.275337      721.58543    
      5000   303.84509      0.016631654    8.9878924      753.84804     -43.2126        710.63544    
      6000   298.80851      0.016631654    8.2068776      741.35214     -45.391902      695.96024    
      7000   292.71426      0.016631654    5.6325289      726.23215     -49.996046      676.2361     
      8000   299.17568      0.016631654    8.9695137      742.26311     -56.914585      685.34853    
      9000   300.08472      0.016631654    7.8939444      744.51846     -59.734024      684.78444    
     10000   297.51373      0.016631654    9.0801435      738.13975     -68.348579      669.79117    
     11000   305.68582      0.016631654    10.949169      758.41494     -65.658009      692.75693    
     12000   303.72375      0.016631654    7.6631679      753.54699     -64.895539      688.65145    
     13000   286.50842      0.016631654    7.2615862      710.83528     -60.69434       650.14094    
     14000   306.55479      0.016631654    8.4046135      760.57087     -63.995889      696.57498    
     15000   308.6507       0.016631654    17.212102      765.7709      -66.271216      699.49969    
     16000   297.89073      0.016631654   -12.137736      739.0751      -72.076374      666.99873    
     17000   302.59854      0.016631654    8.1381909      750.75531     -72.816077      677.93923    
     18000   303.03574      0.016631654    8.5807411      751.84002     -72.25581       679.58421    
     19000   299.73385      0.016631654    9.204981       743.64793     -74.526375      669.12156    
     20000   291.43973      0.016631654    3.6078421      723.07002     -80.042543      643.02747    
     21000   313.40232      0.016631654    8.0180844      777.5598      -81.399213      696.16059    
     22000   304.37361      0.016631654    9.808833       755.15931     -84.941596      670.21771    
     23000   323.48916      0.016631654    16.185086      802.58553     -84.628134      717.9574     
     24000   297.87294      0.016631654    11.459942      739.03097     -81.906115      657.12485    
     25000   298.75597      0.016631654    9.9123355      741.22178     -85.955705      655.26608    
     26000   297.82589      0.016631654    7.5853452      738.91424     -88.182032      650.73221    
     27000   304.93027      0.016631654    10.610461      756.5404      -85.644592      670.89581    
     28000   311.57259      0.016631654    15.121967      773.02018     -89.25487       683.76531    
     29000   303.40895      0.016631654    6.0220948      752.76596     -92.736534      660.02943    
     30000   293.97279      0.016631654    3.0045631      729.3546      -98.644793      630.70981    
     31000   301.00452      0.016631654    10.711952      746.80052     -99.616721      647.1838     
     32000   315.41729      0.016631654    11.781083      782.559       -100.56585      681.99315    
     33000   287.39689      0.016631654    7.1221824      713.03961     -102.76154      610.27807    
     34000   297.30414      0.016631654    6.9221681      737.61976     -100.10991      637.50985    
     35000   301.93921      0.016631654    7.6484524      749.11951     -105.21152      643.90799    
     36000   301.10412      0.016631654    8.7131527      747.04763     -100.68819      646.35944    
     37000   282.65344      0.016631654    8.8730381      701.27098     -107.81501      593.45597    
     38000   294.81082      0.016631654    8.7941365      731.43377     -102.86693      628.56683    
     39000   299.53353      0.016631654    8.1194233      743.15094     -107.7757       635.37524    
     40000   293.9573       0.016631654    8.8932674      729.31616     -114.11915      615.197      
     41000   309.88514      0.016631654    8.1900134      768.83358     -117.10405      651.72953    
     42000   294.75501      0.016631654    8.4408535      731.29529     -110.36519      620.9301     
     43000   299.8334       0.016631654    8.083988       743.89493     -101.53701      642.35792    
     44000   305.29992      0.016631654    9.8878513      757.45752     -107.8748       649.58272    
     45000   311.84464      0.016631654    7.224122       773.69514     -105.42073      668.27441    
     46000   293.11671      0.016631654    8.8278972      727.23064     -106.46923      620.76142    
     47000   290.48174      0.016631654    12.758497      720.6932      -107.45641      613.23679    
     48000   316.5493       0.016631654    10.71689       785.36753     -111.86923      673.4983     
     49000   293.2332       0.016631654    7.7760853      727.51965     -111.28955      616.2301     
     50000   286.59875      0.016631654    12.665832      711.05941     -110.72951      600.32989    
     51000   301.52067      0.016631654    10.272991      748.0811      -108.26727      639.81383    
     52000   308.82953      0.016631654    8.1044798      766.21458     -106.36969      659.84488    
     53000   296.39351      0.016631654    3.4200236      735.36047     -106.64459      628.71588    
     54000   286.00622      0.016631654    14.26703       709.58932     -102.96644      606.62288    
     55000   307.63835      0.016631654    17.486841      763.25922     -105.80816      657.45106    
     56000   312.04891      0.016631654    8.2372959      774.20194     -106.88457      667.31737    
     57000   291.32613      0.016631654   -0.46477692     722.78816     -110.2244       612.56376    
     58000   294.70714      0.016631654    0.13157116     731.17654     -109.97176      621.20478    
     59000   294.21372      0.016631654    16.142433      729.95234     -106.09988      623.85246    
     60000   308.43227      0.016631654    13.452104      765.22896     -107.76251      657.46646    
     61000   310.88736      0.016631654   -7.2822937      771.32011     -111.97629      659.34382    
     62000   300.39807      0.016631654   -5.0585186      745.29588     -107.95023      637.34566    
     63000   290.03022      0.016631654    15.956909      719.57297     -109.78836      609.78461    
     64000   301.71572      0.016631654    12.027215      748.56503     -113.11638      635.44865    
     65000   323.15711      0.016631654   -3.6996628      801.7617      -117.49512      684.26658    
     66000   300.46965      0.016631654   -10.017162      745.47348     -117.3489       628.12458    
     67000   292.60346      0.016631654    15.668489      725.95726     -120.92683      605.03043    
     68000   296.91007      0.016631654   -6.9998994      736.64207     -116.59253      620.04954    
     69000   297.04893      0.016631654    6.5963898      736.9866      -114.02005      622.96655    
     70000   308.42449      0.016631654    11.390571      765.20966     -101.34018      663.86948    
     71000   286.69746      0.016631654    10.099597      711.3043      -107.99011      603.3142     
     72000   295.39683      0.016631654    7.4574582      732.88767     -105.17343      627.71424    
     73000   310.43404      0.016631654    8.9647887      770.19542     -106.482        663.71342    
     74000   303.55732      0.016631654    9.1588939      753.13407     -105.57565      647.55842    
     75000   297.57115      0.016631654    9.0638226      738.28223     -107.81821      630.46401    
     76000   299.71343      0.016631654    7.0822507      743.59729     -107.78583      635.81146    
     77000   309.58835      0.016631654    13.287759      768.09722     -108.30713      659.79009    
     78000   297.86989      0.016631654    8.9129484      739.02341     -108.59554      630.42787    
     79000   310.40158      0.016631654    4.2467951      770.11489     -115.69551      654.41938    
     80000   300.42174      0.016631654    9.3468679      745.35462     -115.8564       629.49822    
     81000   286.29235      0.016631654    8.2270122      710.29922     -117.07701      593.22221    
     82000   303.90682      0.016631654    8.4716792      754.00119     -122.22167      631.77953    
     83000   319.71424      0.016631654    8.7450281      793.21985     -119.04911      674.17074    
     84000   295.01715      0.016631654    7.3330538      731.94569     -122.01194      609.93374    
     85000   302.43995      0.016631654    7.697068       750.36184     -121.76963      628.59221    
     86000   299.33934      0.016631654    6.8420611      742.66915     -121.31595      621.35321    
     87000   299.10217      0.016631654    8.8101179      742.08072     -121.64142      620.4393     
     88000   309.40001      0.016631654    10.94888       767.62995     -119.29151      648.33844    
     89000   298.99686      0.016631654    5.7684627      741.81944     -124.73374      617.0857     
     90000   307.70988      0.016631654    11.698766      763.4367      -119.65342      643.78329    
     91000   298.73165      0.016631654    20.677749      741.16145     -117.54712      623.61434    
     92000   298.43707      0.016631654    8.9603364      740.4306      -124.4339       615.99671    
     93000   304.96217      0.016631654    2.2900674      756.61954     -120.47982      636.13972    
     94000   292.56459      0.016631654    10.016764      725.86082     -122.43218      603.42864    
     95000   300.01668      0.016631654    9.2575861      744.34965     -125.64353      618.70611    
     96000   302.90801      0.016631654    7.5007037      751.52313     -120.63257      630.89056    
     97000   306.70404      0.016631654    8.349443       760.94118     -114.73336      646.20783    
     98000   295.22383      0.016631654    8.8192495      732.45847     -115.33357      617.12489    
     99000   303.53972      0.016631654    6.8048619      753.09041     -110.09754      642.99286    
    100000   314.09899      0.016631654    8.446938       779.28825     -114.7806       664.50765    
    101000   305.02343      0.016631654    9.8096477      756.77154     -118.61683      638.15471    
    102000   289.95091      0.016631654    7.0923459      719.3762      -111.26316      608.11303    
    103000   287.40287      0.016631654    7.9505067      713.05444     -112.50462      600.54982    
    104000   312.07851      0.016631654    8.7130318      774.27539     -113.7232       660.55219    
    105000   300.22777      0.016631654    9.1193197      744.87338     -110.40149      634.4719     
    106000   290.44766      0.016631654    8.0602908      720.60866     -98.475932      622.13273    
    107000   297.93861      0.016631654    8.8173894      739.1939      -107.44565      631.74825    
    108000   308.45943      0.016631654    10.441767      765.29636     -107.27744      658.01892    
    109000   297.46634      0.016631654    11.016247      738.02218     -99.926284      638.09589    
    110000   307.8379       0.016631654    8.4362491      763.75432     -104.09589      659.65843    
    111000   295.60989      0.016631654    6.2882853      733.41628     -112.92426      620.49202    
    112000   277.30897      0.016631654    7.4904794      688.01121     -111.89126      576.11995    
    113000   306.10705      0.016631654    7.7660341      759.46002     -109.78744      649.67258    
    114000   308.8162       0.016631654    8.6503918      766.1815      -109.86518      656.31631    
    115000   280.905        0.016631654    7.8061528      696.93304     -110.90801      586.02503    
    116000   308.88119      0.016631654    6.9921332      766.34274     -110.52972      655.81302    
    117000   304.1122       0.016631654    9.0266108      754.51076     -118.91565      635.59511    
    118000   287.38999      0.016631654    9.941606       713.02248     -117.12741      595.89506    
    119000   306.61098      0.016631654    5.6534142      760.7103      -122.25053      638.45977    
    120000   313.72742      0.016631654    8.6360689      778.36638     -115.92304      662.44334    
    121000   296.04486      0.016631654    9.3602191      734.49546     -119.18214      615.31332    
    122000   299.44926      0.016631654    7.6200637      742.94187     -111.12297      631.81889    
    123000   314.11763      0.016631654    10.067925      779.33451     -115.74123      663.59328    
    124000   297.91075      0.016631654    8.4022056      739.12477     -110.11115      629.01363    
    125000   297.88137      0.016631654    4.8465674      739.0519      -114.77491      624.27699    
    126000   307.28749      0.016631654    8.5271915      762.38873     -110.63419      651.75453    
    127000   286.04465      0.016631654    10.850837      709.68466     -103.35099      606.33367    
    128000   300.58494      0.016631654    8.3576795      745.75953     -107.08656      638.67297    
    129000   303.91994      0.016631654    9.4994968      754.03374     -109.40031      644.63343    
    130000   301.25493      0.016631654    7.4009873      747.42178     -111.17037      636.25141    
    131000   302.6686       0.016631654    9.324154       750.92914     -109.10583      641.82331    
    132000   301.54472      0.016631654    8.3804161      748.14076     -111.93002      636.21074    
    133000   285.23163      0.016631654    3.5530164      707.66755     -109.43725      598.2303     
    134000   297.29618      0.016631654    4.8404205      737.60002     -115.7265       621.87352    
    135000   312.77105      0.016631654    8.8368522      775.9936      -113.32167      662.67192    
    136000   296.01075      0.016631654    12.39071       734.41083     -111.14627      623.26456    
    137000   297.39479      0.016631654    8.7499928      737.84468     -108.83755      629.00713    
    138000   298.26072      0.016631654    3.233457       739.99307     -102.76888      637.22418    
    139000   298.09425      0.016631654    7.7787612      739.58005     -98.921965      640.65808    
    140000   307.26314      0.016631654    8.7057911      762.32832     -102.52397      659.80435    
    141000   293.96957      0.016631654    7.7574491      729.3466      -108.21666      621.12994    
    142000   290.65496      0.016631654    8.4048531      721.12297     -104.01539      617.10759    
    143000   293.19422      0.016631654    5.958738       727.42294     -99.50424       627.9187     
    144000   300.86268      0.016631654    7.1962666      746.44861     -99.325149      647.12346    
    145000   305.43537      0.016631654    6.6225437      757.79357     -95.636368      662.1572     
    146000   298.24486      0.016631654    7.4087396      739.95373     -96.913883      643.03985    
    147000   298.87577      0.016631654    8.0100315      741.51903     -98.057473      643.46156    
    148000   306.27364      0.016631654    11.106328      759.87334     -98.614841      661.2585     
    149000   298.92093      0.016631654    8.9492952      741.63106     -101.31746      640.3136     
    150000   296.63683      0.016631654    6.0195045      735.96414     -102.27406      633.69008    
    151000   295.26068      0.016631654    8.9883542      732.54988     -96.048409      636.50147    
    152000   307.64889      0.016631654    8.7607734      763.28538     -94.470387      668.81499    
    153000   302.22655      0.016631654    7.3379387      749.8324      -96.735639      653.09676    
    154000   286.72142      0.016631654    7.3383873      711.36375     -95.272571      616.09118    
    155000   302.64708      0.016631654    7.9600311      750.87575     -92.23828       658.63747    
    156000   318.74477      0.016631654    11.304005      790.81457     -94.51206       696.30251    
    157000   302.41576      0.016631654    8.5108865      750.30183     -98.227517      652.07431    
    158000   295.15543      0.016631654    7.6113193      732.28876     -99.99358       632.29518    
    159000   297.9544       0.016631654    6.0412916      739.23307     -98.814858      640.41821    
    160000   292.55838      0.016631654    1.4369782      725.8454      -96.945679      628.89973    
    161000   298.514        0.016631654    8.1001203      740.62146     -97.499722      643.12174    
    162000   311.63031      0.016631654    8.879911       773.16338     -96.504676      676.65871    
    163000   291.77827      0.016631654    11.370255      723.90993     -96.834929      627.07501    
    164000   292.53196      0.016631654    5.9620711      725.77985     -99.478084      626.30177    
    165000   312.44444      0.016631654    7.5212691      775.18327     -96.894683      678.28858    
    166000   297.7772       0.016631654    12.237938      738.79344     -99.400466      639.39297    
    167000   299.05186      0.016631654    6.5022708      741.95591     -108.34349      633.61242    
    168000   306.51325      0.016631654    0.29680776     760.46783     -98.7428        661.72503    
    169000   298.01122      0.016631654    12.804845      739.37405     -89.662835      649.71121    
    170000   292.39774      0.016631654    7.6616321      725.44685     -90.001376      635.44547    
    171000   298.01064      0.016631654    1.767907       739.37262     -95.467737      643.90489    
    172000   286.79712      0.016631654    16.555143      711.55157     -96.417911      615.13366    
    173000   296.65935      0.016631654    8.7459542      736.02003     -95.935517      640.08451    
    174000   296.26711      0.016631654    7.3577162      735.04687     -91.570597      643.47627    
    175000   303.53675      0.016631654    4.1391383      753.08304     -87.895292      665.18775    
    176000   308.0622       0.016631654    13.971173      764.31082     -83.807468      680.50335    
    177000   294.24664      0.016631654    22.638811      730.03402     -82.440165      647.59385    
    178000   312.1187       0.016631654    7.7241975      774.3751      -81.142349      693.23276    
    179000   298.47426      0.016631654    3.9530985      740.52287     -83.16107       657.3618     
    180000   292.02417      0.016631654    2.9176747      724.52002     -80.040804      644.47922    
    181000   307.17406      0.016631654    7.1429898      762.10731     -81.667315      680.43999    
    182000   306.3259       0.016631654    15.047841      760.00299     -74.259608      685.74339    
    183000   286.77172      0.016631654    8.5169545      711.48854     -75.141868      636.34667    
    184000   287.16337      0.016631654    1.5699213      712.46023     -73.450984      639.00924    
    185000   313.65406      0.016631654    8.3927041      778.18436     -76.172708      702.01165    
    186000   293.74697      0.016631654    16.679143      728.79432     -81.26348       647.53084    
    187000   304.19443      0.016631654    5.5367106      754.71476     -84.691507      670.02325    
    188000   318.92165      0.016631654    8.6283257      791.25339     -84.068188      707.18521    
    189000   296.33826      0.016631654    10.827594      735.22338     -74.664319      660.55906    
    190000   297.98172      0.016631654    3.9576127      739.30085     -74.861638      664.43922    
    191000   302.39027      0.016631654    8.8152505      750.2386      -81.266551      668.97205    
    192000   326.97561      0.016631654    9.5983028      811.23551     -77.001089      734.23442    
    193000   298.41797      0.016631654    10.846112      740.3832      -85.063789      655.31941    
    194000   286.12957      0.016631654    6.3889674      709.89534     -84.822417      625.07293    
    195000   282.43297      0.016631654    6.4144438      700.72398     -84.087117      616.63686    
    196000   292.90012      0.016631654    7.8621283      726.69328     -77.109963      649.58332    
    197000   294.19923      0.016631654    9.1568753      729.91641     -78.809277      651.10713    
    198000   306.65851      0.016631654    8.9183805      760.82822     -73.121047      687.70717    
    199000   318.35096      0.016631654    2.47899        789.83752     -72.2803        717.55722    
    200000   289.36069      0.016631654    1.3192357      717.91184     -73.919659      643.99218    
    201000   282.13348      0.016631654    9.2897522      699.98093     -74.072351      625.90858    
    202000   308.62294      0.016631654    9.7862287      765.70202     -74.72185       690.98017    
    203000   310.68567      0.016631654    7.8097204      770.8197      -75.380487      695.43922    
    204000   298.2527       0.016631654    3.9986756      739.97317     -78.51822       661.45495    
    205000   297.51862      0.016631654    10.345308      738.1519      -73.832258      664.31965    
    206000   312.90987      0.016631654    8.3049961      776.33802     -73.29737       703.04065    
    207000   291.95271      0.016631654    5.9866787      724.34271     -74.187603      650.15511    
    208000   307.59061      0.016631654    11.156097      763.14078     -75.780538      687.36024    
    209000   300.57466      0.016631654    10.138644      745.73401     -67.125684      678.60833    
    210000   303.56813      0.016631654    6.9559299      753.16089     -62.731206      690.42968    
    211000   283.68614      0.016631654    5.7664891      703.83312     -66.934717      636.89841    
    212000   293.14335      0.016631654    8.0267434      727.29673     -66.524224      660.77251    
    213000   320.84715      0.016631654    9.2232786      796.03061     -65.599172      730.43144    
    214000   297.42522      0.016631654    6.191101       737.92017     -68.844787      669.07539    
    215000   294.6267       0.016631654    8.6763589      730.97697     -72.443314      658.53365    
    216000   311.76354      0.016631654    10.182598      773.49394     -71.117344      702.3766     
    217000   300.4215       0.016631654    7.9594643      745.35401     -73.583056      671.77095    
    218000   294.03126      0.016631654    7.0129036      729.49966     -74.121864      655.37779    
    219000   290.30594      0.016631654    10.270685      720.25704     -68.578119      651.67892    
    220000   304.57008      0.016631654    9.2959914      755.64676     -69.452742      686.19402    
    221000   302.25389      0.016631654    8.3471553      749.90022     -65.836899      684.06332    
    222000   284.4212       0.016631654    8.4808725      705.65683     -63.627898      642.02893    
    223000   311.11934      0.016631654    9.376453       771.89565     -64.271822      707.62383    
    224000   303.42536      0.016631654    8.6943198      752.80669     -66.052922      686.75376    
    225000   290.23342      0.016631654    8.5417011      720.07711     -62.166639      657.91047    
    226000   299.74426      0.016631654    9.910844       743.67378     -66.098913      677.57486    
    227000   312.73415      0.016631654    8.6974213      775.90204     -69.277458      706.62458    
    228000   307.16497      0.016631654    10.115815      762.08475     -69.483661      692.60109    
    229000   285.53708      0.016631654    9.2265886      708.42537     -71.333064      637.09231    
    230000   294.21014      0.016631654    5.9445791      729.94346     -65.939724      664.00373    
    231000   308.28351      0.016631654   -1.1254417      764.8599      -71.309146      693.55075    
    232000   304.59875      0.016631654    3.8352304      755.71789     -66.887925      688.82997    
    233000   307.96567      0.016631654    14.517962      764.07132     -66.867077      697.20425    
    234000   296.49495      0.016631654    16.352721      735.61214     -66.402476      669.20966    
    235000   298.6609       0.016631654    7.8542908      740.98592     -60.954814      680.03111    
    236000   296.40311      0.016631654    6.4649947      735.38429     -65.986132      669.39816    
    237000   295.51201      0.016631654    8.1378725      733.17344     -69.425814      663.74763    
    238000   306.50706      0.016631654    8.6828092      760.45246     -69.124486      691.32798    
    239000   305.79012      0.016631654    13.097222      758.67372     -63.851821      694.8219     
    240000   294.12461      0.016631654    9.4731541      729.73126     -61.20522       668.52604    
    241000   295.29307      0.016631654    2.8497555      732.63025     -66.202205      666.42805    
    242000   309.54929      0.016631654    9.8861409      768.00032     -65.184544      702.81578    
    243000   305.0238       0.016631654    10.707655      756.77246     -68.692576      688.07988    
    244000   296.37074      0.016631654    8.6016422      735.30398     -68.136714      667.16727    
    245000   308.06274      0.016631654    0.53786957     764.31214     -66.906221      697.40592    
    246000   306.36231      0.016631654    13.616666      760.09333     -62.522717      697.57061    
    247000   306.1736       0.016631654    10.07821       759.62513     -63.147148      696.47798    
    248000   291.88921      0.016631654    8.0813765      724.18518     -65.231098      658.95408    
    249000   297.59107      0.016631654    9.4407746      738.33165     -62.85883       675.47282    
    250000   301.53742      0.016631654    3.0919239      748.12265     -60.639367      687.48329    
    251000   303.2753       0.016631654    2.0696211      752.43438     -59.918508      692.51587    
    252000   302.7726       0.016631654    4.5841179      751.18717     -66.73416       684.45301    
    253000   317.13042      0.016631654    5.1716361      786.80931     -62.652682      724.15663    
    254000   295.91044      0.016631654    11.476856      734.16197     -62.146136      672.01583    
    255000   285.9587       0.016631654    5.1629646      709.47141     -60.598209      648.8732     
    256000   306.53618      0.016631654    2.2586244      760.5247      -60.02611       700.49859    
    257000   308.58927      0.016631654    10.547239      765.61849     -62.413877      703.20462    
    258000   299.03388      0.016631654    13.239181      741.91129     -56.607092      685.3042     
    259000   291.39131      0.016631654    6.1714028      722.94988     -58.794225      664.15566    
    260000   294.4052       0.016631654    4.9439453      730.42742     -62.912154      667.51526    
    261000   294.5839       0.016631654    6.1820157      730.87077     -61.264534      669.60623    
    262000   302.48664      0.016631654    8.152952       750.4777      -60.552823      689.92488    
    263000   289.37961      0.016631654    13.350114      717.9588      -58.759332      659.19947    
    264000   305.88601      0.016631654    5.5899789      758.91163     -56.759422      702.15221    
    265000   307.81521      0.016631654    11.345187      763.69803     -57.141607      706.55642    
    266000   286.74455      0.016631654    8.3193899      711.42112     -60.568638      650.85248    
    267000   294.03457      0.016631654    5.4598721      729.50787     -68.831129      660.67674    
    268000   314.03694      0.016631654    8.8705896      779.13431     -61.906848      717.22746    
    269000   300.82878      0.016631654    21.06655       746.3645      -60.952415      685.41209    
    270000   291.21743      0.016631654    4.4698493      722.51846     -56.368992      666.14947    
    271000   309.29181      0.016631654    5.0821907      767.36152     -54.818364      712.54315    
    272000   302.69723      0.016631654    22.254934      751.00017     -56.524453      694.47571    
    273000   289.16095      0.016631654    13.08775       717.41629     -54.984661      662.43163    
    274000   302.92892      0.016631654    8.6288092      751.57499     -63.321112      688.25388    
    275000   302.50115      0.016631654    3.0078457      750.51368     -59.407887      691.1058     
    276000   305.26742      0.016631654    8.3933977      757.37689     -60.070306      697.30659    
    277000   306.48731      0.016631654    19.132823      760.40346     -60.003294      700.40016    
    278000   288.42729      0.016631654    13.24914       715.59605     -61.442557      654.15349    
    279000   302.6138       0.016631654   -9.5004007      750.79319     -62.916673      687.87652    
    280000   310.92943      0.016631654    9.4897058      771.42449     -61.679071      709.74542    
    281000   311.41455      0.016631654    14.046604      772.62807     -61.555559      711.07252    
    282000   289.36772      0.016631654    10.512541      717.92929     -57.81407       660.11522    
    283000   294.9214       0.016631654   -3.1127193      731.70813     -55.982069      675.72606    
    284000   310.29671      0.016631654    7.1242605      769.85469     -58.668772      711.18592    
    285000   301.81689      0.016631654    10.658549      748.81601     -53.989977      694.82604    
    286000   297.3119       0.016631654    10.128082      737.63902     -57.770401      679.86862    
    287000   302.68918      0.016631654    9.3974669      750.98019     -53.16862       697.81157    
    288000   301.27753      0.016631654    8.4047144      747.47786     -58.091721      689.38614    
    289000   282.91545      0.016631654    1.6761928      701.92104     -47.88957       654.03147    
    290000   310.48314      0.016631654    9.9123466      770.31722     -45.330617      724.9866     
    291000   305.73772      0.016631654    13.169923      758.5437      -46.569952      711.97375    
    292000   292.89505      0.016631654    9.4754326      726.68068     -49.098387      677.5823     
    293000   282.89548      0.016631654    4.831883       701.8715      -49.489415      652.38208    
    294000   302.3759       0.016631654    5.4771473      750.20294     -49.163959      701.03898    
    295000   312.41203      0.016631654    16.281331      775.10285     -45.594886      729.50796    
    296000   314.84604      0.016631654    12.800125      781.1417      -49.201618      731.94008    
    297000   299.32729      0.016631654    6.416661       742.63925     -47.541373      695.09788    
    298000   302.44979      0.016631654    1.620013       750.38627     -44.007075      706.37919    
    299000   303.75601      0.016631654    10.716693      753.62703     -48.537846      705.08919    
    300000   301.55555      0.016631654    10.539754      748.16762     -47.977437      700.19018    
    301000   295.72718      0.016631654    1.3272486      733.70728     -48.649556      685.05772    
    302000   307.28332      0.016631654    10.161155      762.37838     -52.106361      710.27202    
    303000   294.29548      0.016631654    9.4771617      730.15519     -45.688312      684.46688    
    304000   292.91168      0.016631654    9.2592046      726.72195     -49.097694      677.62426    
    305000   297.71555      0.016631654    0.2802333      738.64048     -45.815438      692.82504    
    306000   295.98175      0.016631654    15.311405      734.33889     -43.320909      691.01798    
    307000   301.15774      0.016631654    13.683594      747.18065     -48.643464      698.53719    
    308000   295.63351      0.016631654    7.6044855      733.47488     -43.354966      690.11992    
    309000   312.21716      0.016631654    4.5178711      774.61938     -47.201664      727.41772    
    310000   302.23801      0.016631654    16.690661      749.86084     -43.34057       706.52027    
    311000   295.5946       0.016631654    9.4884014      733.37836     -44.116606      689.26175    
    312000   292.19759      0.016631654    6.2302856      724.95028     -37.232984      687.7173     
    313000   315.86488      0.016631654    7.0394362      783.66948     -39.696517      743.97296    
    314000   300.93113      0.016631654    10.214219      746.61843     -42.041426      704.577      
    315000   296.07483      0.016631654    7.4925357      734.56982     -41.769352      692.80047    
    316000   309.30597      0.016631654    8.2439484      767.39664     -38.570814      728.82582    
    317000   294.05207      0.016631654    9.5231164      729.55128     -39.365205      690.18608    
    318000   300.62071      0.016631654    9.9339882      745.84826     -42.818761      703.0295     
    319000   304.56674      0.016631654    8.8195747      755.63848     -38.137506      717.50098    
    320000   315.01139      0.016631654    1.7904392      781.55194     -39.122521      742.42942    
    321000   305.15803      0.016631654    10.463648      757.10549     -44.358056      712.74743    
    322000   297.00119      0.016631654    11.350711      736.86815     -42.744145      694.12401    
    323000   295.91565      0.016631654    8.6072496      734.17489     -38.783289      695.3916     
    324000   307.40496      0.016631654    9.0119389      762.68017     -39.781094      722.89908    
    325000   309.36993      0.016631654    5.9124917      767.55533     -43.830581      723.72475    
    326000   292.68989      0.016631654    9.4392432      726.17168     -44.166176      682.00551    
    327000   298.11276      0.016631654    10.112711      739.62598     -47.211603      692.41438    
    328000   303.37193      0.016631654    8.756828       752.67413     -42.119125      710.55501    
    329000   306.18883      0.016631654    8.5181266      759.66294     -44.160199      715.50274    
    330000   300.5375       0.016631654    9.5864961      745.64183     -46.568656      699.07318    
    331000   284.94757      0.016631654    8.9335753      706.96278     -40.739033      666.22375    
    332000   305.64233      0.016631654    8.8875064      758.30704     -46.186732      712.12031    
    333000   303.43199      0.016631654    10.300054      752.82313     -43.884246      708.93888    
    334000   286.48883      0.016631654    8.8080948      710.78668     -46.099873      664.68681    
    335000   301.81166      0.016631654    10.714073      748.80304     -41.024365      707.77867    
    336000   311.42471      0.016631654    10.473733      772.65329     -45.797348      726.85594    
    337000   297.61883      0.016631654    8.0395139      738.40052     -41.580431      696.82009    
    338000   287.71302      0.016631654    6.1035854      713.82394     -43.302936      670.521      
    339000   292.7747       0.016631654    9.5408563      726.38211     -40.310105      686.07201    
    340000   317.57257      0.016631654    9.7623697      787.9063      -40.402534      747.50377    
    341000   307.75331      0.016631654    9.5372907      763.54445     -44.990274      718.55417    
    342000   300.94904      0.016631654    7.4242257      746.66285     -41.080504      705.58235    
    343000   299.97573      0.016631654    7.9662933      744.24805     -40.470923      703.77713    
    344000   293.64307      0.016631654    7.9112901      728.53656     -38.935832      689.60073    
    345000   302.85718      0.016631654    8.9566256      751.397       -39.635912      711.76109    
    346000   315.88595      0.016631654    10.134739      783.72174     -44.881007      738.84074    
    347000   296.5111       0.016631654    10.307127      735.65221     -44.434477      691.21774    
    348000   297.98241      0.016631654    6.3874543      739.30258     -47.423368      691.87921    
    349000   307.27408      0.016631654    8.2209212      762.35546     -41.185067      721.1704     
    350000   295.47588      0.016631654    8.9965397      733.08381     -39.62874       693.45507    
    351000   304.46183      0.016631654    12.106357      755.37818     -41.22077       714.15741    
    352000   292.36382      0.016631654    9.6816378      725.36269     -43.702211      681.66047    
    353000   292.55266      0.016631654    4.4953016      725.83121     -40.086541      685.74467    
    354000   309.49625      0.016631654    10.304241      767.86873     -41.91672       725.95201    
    355000   296.57949      0.016631654    9.0338056      735.82189     -39.774956      696.04693    
    356000   307.95901      0.016631654    5.3095439      764.0548      -42.516169      721.53863    
    357000   302.1936       0.016631654    9.8118448      749.75064     -38.533189      711.21745    
    358000   290.81811      0.016631654    7.6210095      721.52775     -43.124331      678.40342    
    359000   305.63917      0.016631654    10.638503      758.2992      -46.021167      712.27803    
    360000   309.47784      0.016631654    10.040744      767.82306     -51.957335      715.86572    
    361000   297.48281      0.016631654    8.5090227      738.06305     -46.82987       691.23318    
    362000   286.07409      0.016631654    8.6300253      709.7577      -47.866847      661.89085    
    363000   311.64632      0.016631654    11.323105      773.20311     -43.230859      729.97225    
    364000   299.37213      0.016631654    5.0207208      742.75051     -41.277857      701.47266    
    365000   288.11658      0.016631654    8.1641706      714.82519     -35.646958      679.17823    
    366000   302.21834      0.016631654    13.761499      749.81202     -40.094143      709.71788    
    367000   306.47538      0.016631654    7.5198636      760.37387     -35.286429      725.08744    
    368000   290.11012      0.016631654    8.7110579      719.7712      -37.576717      682.19448    
    369000   290.00813      0.016631654    10.258369      719.51816     -40.633361      678.8848     
    370000   306.8017       0.016631654    14.604981      761.18348     -41.374229      719.80926    
    371000   311.32918      0.016631654    9.7120984      772.41627     -36.771206      735.64506    
    372000   284.75295      0.016631654    7.2981064      706.47992     -35.237864      671.24206    
    373000   295.21466      0.016631654    11.336213      732.43571     -37.30291       695.1328     
    374000   311.73204      0.016631654    9.4188525      773.41578     -41.687022      731.72876    
    375000   308.07415      0.016631654    8.5727021      764.34045     -37.62519       726.71526    
    376000   284.39109      0.016631654    7.0967272      705.58214     -35.945857      669.63628    
    377000   294.47156      0.016631654    11.078986      730.59205     -37.441491      693.15055    
    378000   311.5247       0.016631654    11.508662      772.90136     -41.299143      731.60222    
    379000   302.40152      0.016631654    8.542613       750.2665      -44.241452      706.02505    
    380000   294.60115      0.016631654    7.1488074      730.91359     -44.583234      686.33035    
    381000   299.56421      0.016631654    8.9122351      743.22705     -41.071423      702.15563    
    382000   314.08492      0.016631654    13.120519      779.25335     -41.67165       737.5817     
    383000   309.01684      0.016631654    8.5466784      766.6793      -38.057195      728.62211    
    384000   278.98138      0.016631654    6.9037678      692.1605      -30.794066      661.36644    
    385000   292.77761      0.016631654    8.8063221      726.38931     -32.098208      694.2911     
    386000   316.52825      0.016631654    14.619089      785.31531     -29.263842      756.05146    
    387000   306.93574      0.016631654    8.0321513      761.51604     -29.871852      731.64418    
    388000   296.46602      0.016631654    8.2433132      735.54036     -30.048427      705.49193    
    389000   291.67167      0.016631654    8.338831       723.64545     -33.687623      689.95782    
    390000   311.92859      0.016631654    10.545961      773.90343     -35.755781      738.14764    
    391000   298.96795      0.016631654    9.8638504      741.74772     -29.963752      711.78397    
    392000   298.86021      0.016631654    3.8675036      741.48043     -40.116118      701.36431    
    393000   298.86815      0.016631654    7.8703801      741.50012     -35.480111      706.02001    
    394000   290.4981       0.016631654    10.244086      720.73378     -30.940747      689.79304    
    395000   296.05894      0.016631654    10.492859      734.53038     -36.279556      698.25082    
    396000   297.65231      0.016631654    8.8231309      738.48359     -29.640978      708.84261    
    397000   298.04527      0.016631654    7.7553777      739.45852     -34.270734      705.18779    
    398000   316.05423      0.016631654    17.046903      784.13926     -30.950965      753.18829    
    399000   303.77693      0.016631654    3.6313381      753.67895     -32.765174      720.91377    
    400000   283.58546      0.016631654    4.9473337      703.58333     -25.263194      678.32014    
    401000   302.9175       0.016631654    15.668298      751.54668     -30.2511        721.29558    
    402000   312.2269       0.016631654    3.5881943      774.64354     -29.513809      745.12973    
    403000   292.46285      0.016631654    11.46801       725.60839     -31.236269      694.37212    
    404000   295.93235      0.016631654    11.290737      734.21631     -32.264912      701.9514     
    405000   310.40602      0.016631654    2.0256791      770.1259      -29.075706      741.0502     
    406000   295.64686      0.016631654    0.72985589     733.50801     -31.784563      701.72344    
    407000   286.56372      0.016631654    11.341188      710.9725      -30.032899      680.9396     
    408000   311.09896      0.016631654    11.68885       771.8451      -33.887531      737.95757    
    409000   303.52307      0.016631654    4.2781376      753.04911     -30.108289      722.94082    
    410000   286.70077      0.016631654    8.4802053      711.31251     -30.244969      681.06754    
    411000   302.84012      0.016631654    8.8355064      751.35467     -29.455288      721.89939    
    412000   305.91758      0.016631654    6.28963        758.98995     -35.326185      723.66376    
    413000   291.70036      0.016631654    8.5835197      723.71664     -35.955941      687.7607     
    414000   306.41582      0.016631654    8.4489865      760.2261      -36.359795      723.8663     
    415000   301.77502      0.016631654    9.9582233      748.71214     -32.750907      715.96123    
    416000   294.97805      0.016631654    6.1212954      731.84868     -32.402198      699.44648    
    417000   304.04027      0.016631654    9.0699847      754.33229     -26.776403      727.55589    
    418000   310.28188      0.016631654    8.6798767      769.8179      -29.096738      740.72117    
    419000   300.17789      0.016631654    5.7230216      744.74962     -28.690236      716.05938    
    420000   298.60964      0.016631654    8.0491402      740.85874     -35.147067      705.71167    
    421000   298.89379      0.016631654    11.973309      741.56374     -33.550769      708.01298    
    422000   317.13775      0.016631654    10.984296      786.8275      -32.628319      754.19918    
    423000   298.33031      0.016631654    3.4920231      740.16572     -30.805393      709.36033    
    424000   297.41726      0.016631654    8.275373       737.90042     -31.799097      706.10132    
    425000   280.87718      0.016631654    8.3100087      696.86402     -28.963296      667.90073    
    426000   307.93428      0.016631654    11.18357       763.99343     -26.318565      737.67487    
    427000   306.04687      0.016631654    5.847368       759.31073     -32.335153      726.97557    
    428000   293.78932      0.016631654    9.7472969      728.89939     -28.141413      700.75798    
    429000   301.1244       0.016631654    15.506211      747.09794     -35.588287      711.50966    
    430000   304.87276      0.016631654    7.2522537      756.39771     -33.198843      723.19887    
    431000   299.17396      0.016631654    3.2567638      742.25884     -33.137173      709.12167    
    432000   286.32116      0.016631654    7.3326605      710.3707      -30.664192      679.70651    
    433000   294.215        0.016631654    11.99519       729.95552     -31.883885      698.07163    
    434000   315.70844      0.016631654    8.8443794      783.28134     -32.772487      750.50885    
    435000   303.52515      0.016631654    5.0384833      753.05427     -28.808811      724.24546    
    436000   286.13394      0.016631654    8.4918268      709.9062      -28.904631      681.00157    
    437000   299.42775      0.016631654    12.172895      742.88851     -32.119957      710.76855    
    438000   322.17475      0.016631654    11.472118      799.32442     -32.599407      766.72502    
    439000   300.18397      0.016631654    5.2424855      744.7647      -34.896784      709.86792    
    440000   284.57492      0.016631654    5.5988893      706.03821     -32.882994      673.15522    
    441000   300.2014       0.016631654    10.643885      744.80794     -37.07456       707.73338    
    442000   320.06794      0.016631654    10.773474      794.09738     -37.953733      756.14364    
    443000   298.93824      0.016631654    8.4942576      741.67402     -32.527631      709.14639    
    444000   294.39535      0.016631654    8.3820341      730.40297     -27.230637      703.17233    
    445000   292.99878      0.016631654    15.912746      726.93804     -31.6591        695.27894    
    446000   305.73009      0.016631654    5.9115728      758.52478     -32.909959      725.61482    
    447000   293.91367      0.016631654    9.101377       729.20792     -32.573713      696.63421    
    448000   304.24604      0.016631654    9.0633271      754.84281     -34.805991      720.03682    
    449000   318.02998      0.016631654    9.425537       789.04114     -30.837388      758.20375    
    450000   301.52434      0.016631654    7.8907984      748.0902      -28.374249      719.71595    
    451000   291.09969      0.016631654    7.5708859      722.22634     -30.098028      692.12832    
    452000   304.29629      0.016631654    9.3071107      754.96749     -32.016234      722.95126    
    453000   291.6767       0.016631654    9.6147267      723.65792     -31.064408      692.59352    
    454000   298.39398      0.016631654    6.135848       740.3237      -35.003383      705.32032    
    455000   298.51702      0.016631654    8.5665159      740.62894     -32.48034       708.1486     
    456000   286.0805       0.016631654    15.092198      709.77361     -32.006318      677.76729    
    457000   308.32475      0.016631654    8.8528031      764.9622      -38.965281      725.99692    
    458000   300.678        0.016631654    6.1047389      745.99041     -38.093763      707.89665    
    459000   296.97991      0.016631654    10.929115      736.81534     -34.550153      702.26518    
    460000   300.00446      0.016631654    11.896796      744.31932     -39.409089      704.91024    
    461000   300.69681      0.016631654    6.0340708      746.03707     -33.675485      712.36158    
    462000   304.67053      0.016631654    8.4482886      755.89599     -40.645179      715.25081    
    463000   295.53599      0.016631654    8.6622909      733.23293     -42.610804      690.62213    
    464000   288.11566      0.016631654    8.9355369      714.82288     -36.608041      678.21484    
    465000   301.07312      0.016631654    9.4301551      746.97072     -38.180985      708.78973    
    466000   310.04617      0.016631654    10.823124      769.2331      -34.393114      734.83998    
    467000   280.2392       0.016631654    8.3010752      695.28118     -39.049119      656.23206    
    468000   285.79262      0.016631654    8.0606587      709.05937     -30.66483       678.39454    
    469000   297.77844      0.016631654    5.0950396      738.79652     -27.950731      710.84579    
    470000   312.94145      0.016631654    8.7711203      776.41638     -32.645672      743.7707     
    471000   314.42987      0.016631654    10.585575      780.10918     -30.158859      749.95032    
    472000   295.75292      0.016631654    9.1076441      733.77115     -34.148485      699.62267    
    473000   296.60649      0.016631654    7.2855615      735.88888     -35.224445      700.66443    
    474000   311.54426      0.016631654    6.7131992      772.94989     -34.839437      738.11045    
    475000   286.93435      0.016631654    8.4840164      711.89202     -30.526832      681.36519    
    476000   293.34674      0.016631654    12.58996       727.80134     -32.05177       695.74957    
    477000   300.26524      0.016631654    8.4797022      744.96633     -29.6349        715.33143    
    478000   300.02506      0.016631654    8.3567879      744.37044     -25.373031      718.99741    
    479000   300.40328      0.016631654    12.021834      745.30882     -22.162428      723.14639    
    480000   300.1902       0.016631654    8.5795358      744.78017     -24.198206      720.58197    
    481000   305.07389      0.016631654    7.2552809      756.89672     -23.37294       733.52378    
    482000   316.20104      0.016631654    7.459924       784.50351     -27.163473      757.34003    
    483000   290.57923      0.016631654    12.596216      720.93507     -25.761621      695.17345    
    484000   292.6639       0.016631654    2.1537293      726.1072      -21.971802      704.13539    
    485000   321.60218      0.016631654    6.0475217      797.90387     -31.72804       766.17583    
    486000   296.70827      0.016631654    10.72996       736.14141     -27.785808      708.3556     
    487000   294.39523      0.016631654    1.6054216      730.40269     -28.137198      702.26549    
    488000   310.51857      0.016631654    8.4232781      770.40514     -29.556578      740.84857    
    489000   295.85337      0.016631654    12.558363      734.02038     -33.322775      700.6976     
    490000   292.64264      0.016631654    9.2447046      726.05445     -31.622838      694.43162    
    491000   296.85893      0.016631654    3.4185546      736.51519     -31.258         705.25719    
    492000   312.60196      0.016631654    2.4683351      775.57408     -32.272354      743.30172    
    493000   301.02298      0.016631654    8.053421       746.84632     -29.207438      717.63888    
    494000   305.95293      0.016631654    8.6689684      759.07765     -26.140963      732.93669    
    495000   308.54581      0.016631654    9.897633       765.51065     -23.154947      742.3557     
    496000   301.0642       0.016631654    9.6655073      746.94857     -22.935954      724.01261    
    497000   305.7817       0.016631654   -9.7832511      758.65283     -24.9574        733.69543    
    498000   303.14774      0.016631654    13.292956      752.1179      -29.678668      722.43923    
    499000   302.82656      0.016631654    13.60183       751.32105     -31.519649      719.8014     
    500000   294.1473       0.016631654    11.858302      729.78755     -34.919399      694.86815    
    501000   297.47425      0.016631654    8.7960521      738.04182     -31.338232      706.70358    
    502000   315.98091      0.016631654    8.1632017      783.95735     -28.376728      755.58062    
    503000   305.75661      0.016631654    9.887457       758.59059     -29.182359      729.40823    
    504000   297.54959      0.016631654    9.1245391      738.22874     -23.47682       714.75192    
    505000   293.26969      0.016631654    8.5559958      727.61019     -25.360603      702.24958    
    506000   312.2818       0.016631654    9.974232       774.77974     -24.153979      750.62576    
    507000   305.64645      0.016631654    8.1195421      758.31726     -26.948227      731.36903    
    508000   287.4697       0.016631654    8.7307823      713.22025     -23.28864       689.93161    
    509000   293.55605      0.016631654    10.672573      728.32066     -24.552117      703.76854    
    510000   325.78269      0.016631654    9.0108546      808.27583     -31.186391      777.08944    
    511000   295.64576      0.016631654    10.143871      733.50529     -28.312603      705.19269    
    512000   288.88184      0.016631654    8.4992477      716.72381     -30.70103       686.02278    
    513000   307.59223      0.016631654    8.3947821      763.1448      -27.476848      735.66795    
    514000   306.35242      0.016631654    9.6542963      760.06881     -25.94397       734.12484    
    515000   291.73762      0.016631654    9.0213762      723.80909     -27.763475      696.04561    
    516000   294.92973      0.016631654    9.4406191      731.72878     -26.879522      704.84926    
    517000   313.62808      0.016631654    14.986748      778.11991     -24.734696      753.38522    
    518000   314.97821      0.016631654    5.8448196      781.46962     -30.022958      751.44666    
    519000   285.79392      0.016631654    4.8489759      709.06259     -29.364484      679.69811    
    520000   293.47159      0.016631654    12.584343      728.11111     -28.396037      699.71507    
    521000   310.71328      0.016631654    3.2136401      770.88821     -27.331527      743.55668    
    522000   320.79254      0.016631654    3.1341821      795.89515     -28.986712      766.90843    
    523000   289.30168      0.016631654    9.351105       717.76544     -27.740032      690.02541    
    524000   291.36233      0.016631654    20.988163      722.87796     -32.314378      690.56359    
    525000   306.78548      0.016631654    9.5387211      761.14322     -24.526782      736.61644    
    526000   315.47249      0.016631654    6.5341104      782.69595     -22.280844      760.41511    
    527000   294.46832      0.016631654    8.5201542      730.58403     -25.355259      705.22877    
    528000   294.3516       0.016631654    6.3457069      730.29444     -23.469806      706.82463    
    529000   311.8517       0.016631654    15.411878      773.71267     -22.964385      750.74828    
    530000   300.66392      0.016631654    11.04035       745.95546     -17.903925      728.05154    
    531000   282.16737      0.016631654    5.4086024      700.06502     -29.14601       670.91901    
    532000   305.95241      0.016631654    9.218337       759.07635     -28.459287      730.61707    
    533000   319.2939       0.016631654    15.233619      792.17696     -27.150824      765.02614    
    534000   303.28001      0.016631654    9.6546606      752.44607     -23.997743      728.44833    
    535000   296.84136      0.016631654    5.912113       736.47159     -23.0443        713.42728    
    536000   300.73992      0.016631654    9.0775171      746.14403     -22.725002      723.41902    
    537000   309.46468      0.016631654    11.34354       767.79039     -22.341665      745.44873    
    538000   304.40968      0.016631654    13.203819      755.2488      -23.008733      732.24006    
    539000   278.97977      0.016631654    9.0997643      692.1565      -26.461093      665.69541    
    540000   281.19569      0.016631654    7.018914       697.65425     -28.642266      669.01198    
    541000   303.98475      0.016631654    6.7558836      754.19453     -27.763041      726.43149    
    542000   307.97713      0.016631654    10.658333      764.09976     -22.92886       741.1709     
    543000   298.77582      0.016631654    10.737306      741.27106     -24.813993      716.45706    
    544000   304.30082      0.016631654    9.2036113      754.97871     -22.877659      732.10106    
    545000   293.2801       0.016631654    8.1536875      727.636       -28.503135      699.13287    
    546000   301.34815      0.016631654    9.0323857      747.65308     -25.925025      721.72805    
    547000   309.63095      0.016631654    8.6506734      768.20293     -23.710925      744.49201    
    548000   275.12668      0.016631654    7.8096311      682.59687     -26.418631      656.17824    
    549000   294.99782      0.016631654    9.1070487      731.89772     -25.273951      706.62376    
    550000   318.55508      0.016631654    11.356419      790.34395     -21.523643      768.8203     
    551000   315.20486      0.016631654    2.7893322      782.03195     -21.925816      760.10613    
    552000   290.2393       0.016631654    9.7299444      720.09171     -24.745827      695.34588    
    553000   304.48113      0.016631654    9.3969378      755.42608     -25.081978      730.3441     
    554000   305.95354      0.016631654    9.2720221      759.07917     -26.069336      733.00984    
    555000   289.73062      0.016631654    5.0707666      718.82964     -25.126256      693.70339    
    556000   289.61296      0.016631654    10.041755      718.53773     -29.193722      689.344      
    557000   290.76715      0.016631654    9.5366571      721.4013      -31.191675      690.20963    
    558000   300.39339      0.016631654    10.279957      745.28428     -28.158118      717.12616    
    559000   302.45475      0.016631654    9.3399648      750.39856     -21.717302      728.68126    
    560000   291.52472      0.016631654   -2.5728422      723.28087     -28.126187      695.15469    
    561000   296.91307      0.016631654    13.940618      736.64951     -25.892979      710.75653    
    562000   317.88667      0.016631654    7.3197956      788.6856      -26.803069      761.88253    
    563000   306.87778      0.016631654    6.1171802      761.37222     -27.944457      733.42777    
    564000   285.6193       0.016631654    8.4699849      708.62935     -28.63893       679.99042    
    565000   295.74267      0.016631654    9.841141       733.74571     -32.391461      701.35425    
    566000   314.3207       0.016631654    9.064303       779.83831     -32.526015      747.3123     
    567000   304.22987      0.016631654    7.6494229      754.8027      -32.358595      722.44411    
    568000   293.19287      0.016631654    4.7533119      727.4196      -32.526703      694.8929     
    569000   280.74723      0.016631654    13.722141      696.54163     -26.819039      669.72259    
    570000   302.78293      0.016631654    12.979622      751.21281     -25.393903      725.8189     
    571000   304.75977      0.016631654    1.8124452      756.1174      -33.874787      722.24261    
    572000   289.63927      0.016631654    6.5678461      718.603       -31.156572      687.44643    
    573000   291.83447      0.016631654    9.1071977      724.04937     -33.559848      690.48953    
    574000   315.45082      0.016631654    9.1721495      782.64218     -30.466767      752.17541    
    575000   303.3836       0.016631654    10.154217      752.70307     -32.970429      719.73264    
    576000   307.14048      0.016631654    4.7338441      762.024       -31.413801      730.6102     
    577000   297.96346      0.016631654    6.7161572      739.25556     -28.55206       710.7035     
    578000   290.38541      0.016631654    10.843583      720.45421     -30.915642      689.53857    
    579000   308.27563      0.016631654    9.8611612      764.84033     -23.245233      741.59509    
    580000   310.29711      0.016631654    8.5284203      769.85568     -30.202995      739.65268    
    581000   297.67036      0.016631654    15.378667      738.52837     -27.802227      710.72614    
    582000   296.20703      0.016631654    9.1340439      734.89781     -29.453304      705.44451    
    583000   301.47165      0.016631654    5.9271966      747.95948     -27.831111      720.12837    
    584000   315.86307      0.016631654    9.1337526      783.66499     -28.829246      754.83574    
    585000   298.7988       0.016631654    8.697847       741.32806     -28.849648      712.47841    
    586000   306.26263      0.016631654    8.8014997      759.84603     -27.825608      732.02042    
    587000   297.86516      0.016631654    7.7542662      739.01168     -27.39324       711.61844    
    588000   299.49209      0.016631654    10.462801      743.04813     -28.21801       714.83012    
    589000   293.80551      0.016631654    9.5836335      728.93958     -27.776488      701.16309    
    590000   291.33657      0.016631654    7.6396377      722.81406     -32.940688      689.87337    
    591000   307.5371       0.016631654    9.5284482      763.00802     -27.279898      735.72813    
    592000   314.12213      0.016631654    9.323692       779.34566     -32.988604      746.35706    
    593000   303.33798      0.016631654    8.4928141      752.58988     -31.57048       721.0194     
    594000   289.60469      0.016631654    7.9363189      718.51721     -27.593287      690.92392    
    595000   308.2923       0.016631654    9.2234037      764.8817      -29.820544      735.06115    
    596000   304.4266       0.016631654    8.6819952      755.29078     -30.6199        724.67088    
    597000   292.23099      0.016631654    8.6275315      725.03314     -25.574294      699.45885    
    598000   305.80902      0.016631654    9.959595       758.72061     -25.800342      732.92027    
    599000   317.37247      0.016631654    9.9815719      787.40985     -26.82892       760.58093    
    600000   300.40716      0.016631654    9.940978       745.31844     -26.950262      718.36818    
    601000   290.53051      0.016631654    9.471431       720.81419     -25.159626      695.65457    
    602000   287.59027      0.016631654    5.8662328      713.51938     -27.546693      685.97268    
    603000   311.83658      0.016631654    9.2803545      773.67515     -27.540105      746.13504    
    604000   304.56734      0.016631654    11.105347      755.63997     -26.734333      728.90563    
    605000   284.81942      0.016631654    8.5302197      706.64484     -31.764081      674.88075    
    606000   300.3322       0.016631654    8.4236212      745.13246     -31.767014      713.36545    
    607000   314.80085      0.016631654    8.4079211      781.02958     -29.6054        751.42418    
    608000   304.34602      0.016631654    8.6026467      755.09088     -25.061552      730.02932    
    609000   305.66758      0.016631654    8.6388557      758.36968     -30.281391      728.08829    
    610000   311.53653      0.016631654    13.931084      772.93072     -32.915994      740.01472    
    611000   300.25621      0.016631654    8.2984901      744.94393     -35.100488      709.84344    
    612000   290.60173      0.016631654    9.4810632      720.99091     -36.742328      684.24858    
    613000   289.27928      0.016631654    8.2951348      717.70986     -29.890608      687.81925    
    614000   298.14702      0.016631654    9.485136       739.71098     -32.254828      707.45615    
    615000   313.42331      0.016631654    9.1513959      777.61187     -31.990602      745.62127    
    616000   306.15658      0.016631654    9.4586405      759.58291     -35.818978      723.76393    
    617000   298.92132      0.016631654    3.1996713      741.63204     -40.531775      701.10026    
    618000   303.05335      0.016631654    11.118134      751.88372     -29.083897      722.79982    
    619000   305.56871      0.016631654    14.137966      758.12438     -32.04926       726.07512    
    620000   311.89187      0.016631654    8.2930405      773.81232     -31.977468      741.83485    
    621000   296.91031      0.016631654    8.1524477      736.64267     -32.243222      704.39944    
    622000   295.51308      0.016631654    8.5203924      733.17609     -36.201025      696.97506    
    623000   305.6339       0.016631654    10.256756      758.28613     -32.095727      726.1904     
    624000   295.17014      0.016631654    7.9386116      732.32526     -35.52809       696.79717    
    625000   311.76202      0.016631654    7.6763254      773.49016     -31.988536      741.50163    
    626000   308.25887      0.016631654    9.5036772      764.79876     -35.139048      729.65971    
    627000   286.26891      0.016631654    10.511555      710.24106     -36.681976      673.55908    
    628000   297.99385      0.016631654    6.0741168      739.33096     -34.035251      705.29571    
    629000   304.91547      0.016631654    7.6691498      756.50369     -33.411732      723.09196    
    630000   305.67737      0.016631654    5.7882993      758.39398     -32.089205      726.30478    
    631000   296.96309      0.016631654    12.510456      736.77361     -34.839712      701.9339     
    632000   295.60533      0.016631654    10.674579      733.40498     -30.758559      702.64642    
    633000   311.41531      0.016631654    6.673722       772.62996     -32.845534      739.78443    
    634000   305.37685      0.016631654    11.333502      757.64837     -31.517509      726.13086    
    635000   291.35398      0.016631654    9.9366934      722.85727     -32.692892      690.16437    
    636000   299.44844      0.016631654    7.7296068      742.93985     -35.088269      707.85158    
    637000   315.13819      0.016631654    9.3703249      781.86653     -30.81472       751.05181    
    638000   305.35812      0.016631654    11.673845      757.6019      -34.328607      723.2733     
    639000   289.39797      0.016631654    7.8810227      718.00433     -37.611734      680.3926     
    640000   303.81271      0.016631654    9.7070962      753.7677      -35.263988      718.50372    
    641000   291.46694      0.016631654    10.598479      723.13752     -41.726745      681.41078    
    642000   299.90108      0.016631654    10.32952       744.06285     -38.11126       705.95159    
    643000   302.1399       0.016631654    6.8478761      749.61743     -34.923423      714.69401    
    644000   285.98873      0.016631654    8.4186416      709.54592     -31.769213      677.77671    
    645000   306.73819      0.016631654    13.353211      761.02589     -34.90483       726.12106    
    646000   309.75664      0.016631654    7.5042297      768.51477     -34.42173       734.09304    
    647000   287.59763      0.016631654    8.5279278      713.53765     -28.988677      684.54898    
    648000   297.06746      0.016631654    11.888514      737.03255     -32.995209      704.03734    
    649000   316.91041      0.016631654    5.9288678      786.26345     -35.504316      750.75914    
    650000   287.97054      0.016631654    0.32527504     714.46284     -32.034314      682.42852    
    651000   285.39512      0.016631654    1.1252957      708.07316     -33.288925      674.78424    
    652000   299.986        0.016631654    12.930919      744.27354     -36.467048      707.80649    
    653000   311.62854      0.016631654    8.3965191      773.159       -35.820415      737.33859    
    654000   291.11326      0.016631654    5.2541162      722.26001     -35.570819      686.68919    
    655000   285.90114      0.016631654    7.8468619      709.32862     -37.525803      671.80282    
    656000   307.63982      0.016631654    16.098669      763.26289     -30.999508      732.26338    
    657000   312.06617      0.016631654    7.4451195      774.24477     -31.035067      743.20971    
    658000   298.5925       0.016631654    6.8527261      740.81623     -29.002547      711.81368    
    659000   294.51209      0.016631654    13.142877      730.69262     -30.387105      700.30552    
    660000   306.7458       0.016631654    10.082665      761.04479     -35.961808      725.08299    
    661000   305.10308      0.016631654    5.4551784      756.96914     -30.891684      726.07746    
    662000   293.84758      0.016631654    11.334621      729.04395     -27.073549      701.9704     
    663000   306.85014      0.016631654    9.7275741      761.30365     -26.41548       734.88817    
    664000   293.94717      0.016631654    4.1480779      729.29102     -24.569322      704.7217     
    665000   292.20068      0.016631654    10.58921       724.95793     -26.886432      698.0715     
    666000   300.13377      0.016631654    16.307661      744.64016     -24.977531      719.66262    
    667000   302.86347      0.016631654    7.9048117      751.41263     -29.165935      722.24669    
    668000   301.69037      0.016631654    5.1820671      748.50211     -24.806055      723.69606    
    669000   296.61467      0.016631654    6.9625063      735.90917     -27.882227      708.02694    
    670000   283.32272      0.016631654    18.515366      702.93147     -25.438163      677.49331    
    671000   300.19162      0.016631654    12.068623      744.78368     -30.463829      714.31986    
    672000   306.5042       0.016631654    9.410802       760.44536     -36.098413      724.34695    
    673000   303.13132      0.016631654    9.1659395      752.07715     -31.412523      720.66463    
    674000   276.31907      0.016631654    3.6887128      685.55522     -37.468783      648.08643    
    675000   306.63737      0.016631654    21.754966      760.77576     -33.266155      727.50961    
    676000   305.02203      0.016631654   -3.4850444      756.76807     -34.086541      722.68153    
    677000   294.55704      0.016631654   -4.0405656      730.80413     -29.240674      701.56346    
    678000   302.48699      0.016631654    7.597546       750.47857     -29.52          720.95857    
    679000   295.4966       0.016631654    11.408207      733.13521     -32.072042      701.06317    
    680000   297.74372      0.016631654    10.896118      738.71036     -29.881616      708.82875    
    681000   312.77761      0.016631654   -0.12512852     776.00986     -29.653142      746.35672    
    682000   288.99683      0.016631654    7.9557431      717.00911     -30.976649      686.03246    
    683000   291.72336      0.016631654    18.28974       723.77369     -35.874941      687.89875    
    684000   311.89829      0.016631654    16.094349      773.82826     -36.650997      737.17726    
    685000   304.4368       0.016631654   -3.7113724      755.31609     -37.199736      718.11636    
    686000   284.03271      0.016631654    7.6698531      704.69297     -32.269882      672.42309    
    687000   301.78334      0.016631654    26.697086      748.73279     -29.145819      719.58697    
    688000   297.37256      0.016631654    3.5822254      737.78953     -33.87103       703.9185     
    689000   300.86871      0.016631654   -5.3795387      746.46357     -32.826372      713.6372     
    690000   305.9146       0.016631654    10.659247      758.98257     -33.789483      725.19308    
    691000   310.75795      0.016631654    7.3710339      770.99905     -32.71571       738.28334    
    692000   287.81073      0.016631654   -1.222904       714.06636     -34.004585      680.06178    
    693000   287.47828      0.016631654    7.7844457      713.24153     -33.782623      679.45891    
    694000   299.3491       0.016631654    8.7826228      742.69338     -35.132199      707.56118    
    695000   302.73341      0.016631654    12.593379      751.08994     -33.439802      717.65014    
    696000   314.25056      0.016631654    9.0893083      779.66429     -35.577563      744.08673    
    697000   293.04286      0.016631654    8.3309128      727.04742     -35.439486      691.60794    
    698000   298.00608      0.016631654    14.021799      739.3613      -35.714453      703.64685    
    699000   314.61831      0.016631654    6.7910311      780.5767      -32.597544      747.97916    
    700000   299.25298      0.016631654    0.98276891     742.4549      -31.490217      710.96468    
    701000   288.04545      0.016631654    13.934888      714.6487      -36.207112      678.44159    
    702000   322.5065       0.016631654    11.985891      800.14751     -35.884552      764.26296    
    703000   308.06446      0.016631654    4.0064323      764.31641     -31.491056      732.82535    
    704000   290.92032      0.016631654    6.302677       721.78133     -32.345249      689.43608    
    705000   295.15921      0.016631654    5.4353302      732.29813     -32.108703      700.18943    
    706000   301.82557      0.016631654    9.3629328      748.83755     -28.440636      720.39691    
    707000   309.42849      0.016631654    10.40605       767.7006      -28.720123      738.98048    
    708000   300.76755      0.016631654    6.7737453      746.21259     -28.407554      717.80504    
    709000   306.55406      0.016631654    7.4350687      760.56906     -26.689251      733.87981    
    710000   294.50801      0.016631654    9.0842623      730.68248     -28.363116      702.31936    
    711000   287.0103       0.016631654    9.0222864      712.08048     -27.200407      684.88007    
    712000   317.96802      0.016631654    10.373077      788.88742     -26.643526      762.24389    
    713000   298.64921      0.016631654    8.8536145      740.95693     -26.893677      714.06325    
    714000   288.81903      0.016631654    7.8725948      716.56799     -29.574319      686.99367    
    715000   305.51927      0.016631654    9.270596       758.00172     -27.12904       730.87268    
    716000   321.70053      0.016631654    6.8760726      798.14788     -27.902328      770.24555    
    717000   303.53316      0.016631654    11.617003      753.07414     -28.27435       724.79979    
    718000   288.66642      0.016631654    5.755568       716.18935     -30.590581      685.59877    
    719000   295.93355      0.016631654    6.5367913      734.2193      -28.794633      705.42467    
    720000   308.61138      0.016631654    7.6547755      765.67335     -25.85343       739.81992    
    721000   288.51094      0.016631654    12.875261      715.8036      -28.55383       687.24977    
    722000   290.09596      0.016631654    6.7662402      719.73607     -29.972537      689.76353    
    723000   303.75455      0.016631654    8.5912786      753.62342     -31.057882      722.56554    
    724000   307.19404      0.016631654    9.3220967      762.15687     -31.610283      730.54659    
[...]
   3823000   297.38597      0.016631654   -3.5877152      737.82279     -32.493791      705.329      
   3824000   289.21019      0.016631654    12.765998      717.53845     -29.378486      688.15996    
   3825000   322.53556      0.016631654    11.467971      800.21963     -30.518336      769.70129    
   3826000   309.66107      0.016631654   -0.3596564      768.27766     -32.489363      735.7883     
   3827000   296.06633      0.016631654    5.5999838      734.54873     -33.38503       701.1637     
   3828000   298.38077      0.016631654    15.732837      740.29092     -34.400715      705.89021    
   3829000   306.84577      0.016631654    8.4235376      761.29281     -30.440354      730.85246    
   3830000   301.38293      0.016631654    8.0158586      747.73937     -31.897161      715.84221    
   3831000   303.93082      0.016631654    7.6771274      754.06075     -31.536584      722.52416    
   3832000   288.73083      0.016631654    19.875678      716.34914     -31.016785      685.33235    
   3833000   306.78164      0.016631654    12.337815      761.1337      -30.939967      730.19373    
   3834000   305.5412       0.016631654    11.044941      758.05614     -34.068629      723.98751    
   3835000   306.43543      0.016631654    3.2645065      760.27474     -33.679716      726.59502    
   3836000   296.52267      0.016631654    2.3991914      735.68091     -36.513651      699.16726    
   3837000   296.36565      0.016631654    12.83227       735.29133     -33.074151      702.21718    
   3838000   298.45006      0.016631654    9.3768091      740.46283     -31.830049      708.63278    
   3839000   305.70048      0.016631654    1.1501023      758.45132     -30.926083      727.52524    
   3840000   289.34058      0.016631654    6.0855165      717.86196     -27.825821      690.03614    
   3841000   298.30904      0.016631654    15.364074      740.11296     -28.493075      711.61988    
   3842000   313.82014      0.016631654    10.559507      778.59641     -23.6504        754.94601    
   3843000   301.49338      0.016631654    4.1432681      748.01338     -20.013856      727.99953    
   3844000   290.45195      0.016631654    10.729685      720.61928     -26.704976      693.91431    
   3845000   295.79403      0.016631654    13.233725      733.87315     -23.346973      710.52617    
   3846000   297.26969      0.016631654    7.8545843      737.53428     -23.926253      713.60803    
   3847000   291.0809       0.016631654    7.4823125      722.17974     -31.988276      690.19146    
   3848000   309.32835      0.016631654    10.647773      767.45217     -31.850226      735.60195    
   3849000   301.50201      0.016631654    1.6638313      748.03479     -32.71732       715.31747    
   3850000   290.36357      0.016631654    11.42889       720.40003     -34.995776      685.40425    
   3851000   300.22701      0.016631654    11.40878       744.87148     -32.558573      712.31291    
   3852000   310.19724      0.016631654    5.7138758      769.6079      -31.154528      738.45337    
   3853000   288.78931      0.016631654    6.3765854      716.49423     -34.075059      682.41917    
   3854000   303.51269      0.016631654    8.7272034      753.02335     -34.665299      718.35806    
   3855000   302.76456      0.016631654    11.70385       751.16721     -33.489487      717.67772    
   3856000   301.59157      0.016631654    9.5440101      748.257       -30.942547      717.31445    
   3857000   304.40538      0.016631654    6.7819145      755.23815     -30.468828      724.76932    
   3858000   299.39222      0.016631654    8.1948926      742.80035     -28.141243      714.6591     
   3859000   298.57956      0.016631654    7.7086649      740.78411     -30.046622      710.73749    
   3860000   311.65699      0.016631654    7.8855789      773.22957     -28.716124      744.51345    
   3861000   302.97191      0.016631654    9.1723445      751.68166     -24.976774      726.70488    
   3862000   305.57538      0.016631654    7.2419007      758.14093     -27.375046      730.76589    
   3863000   298.62139      0.016631654    9.3642106      740.88791     -22.838095      718.04981    
   3864000   305.23053      0.016631654    9.49438        757.28535     -30.65746       726.62789    
   3865000   300.59907      0.016631654    8.9427454      745.79457     -27.57545       718.21912    
   3866000   307.34019      0.016631654    7.0315471      762.51949     -25.165095      737.35439    
   3867000   302.83103      0.016631654    10.468036      751.33214     -26.076094      725.25604    
   3868000   300.15654      0.016631654    9.9834412      744.69664     -25.659637      719.037      
   3869000   295.75926      0.016631654    11.993385      733.78689     -24.431689      709.3552     
   3870000   296.10822      0.016631654    1.4989364      734.65265     -27.282998      707.36965    
   3871000   292.31583      0.016631654    9.8375717      725.24364     -32.493068      692.75057    
   3872000   290.64474      0.016631654    18.553989      721.09761     -27.47868       693.61893    
   3873000   305.46897      0.016631654    6.114985       757.87694     -31.08515       726.79179    
   3874000   321.06321      0.016631654    4.1069246      796.56668     -34.504166      762.06252    
   3875000   291.99408      0.016631654    12.413655      724.44535     -29.453878      694.99147    
   3876000   296.69146      0.016631654   -6.0567132      736.09969     -36.030048      700.06964    
   3877000   315.74914      0.016631654    5.801315       783.38231     -32.86838       750.51393    
   3878000   307.85098      0.016631654    17.812388      763.78677     -34.469207      729.31756    
   3879000   290.53287      0.016631654    21.108071      720.82006     -32.98932       687.83074    
   3880000   305.81134      0.016631654   -0.74218494     758.72636     -30.146557      728.5798     
   3881000   318.54111      0.016631654    2.6747246      790.30928     -29.666267      760.64301    
   3882000   303.93885      0.016631654    14.184282      754.08066     -33.443162      720.6375     
   3883000   279.76994      0.016631654    3.9800436      694.11693     -28.650192      665.46673    
   3884000   304.18527      0.016631654    4.5734323      754.69204     -29.988033      724.70401    
   3885000   315.86105      0.016631654    7.3191058      783.65996     -28.884364      754.7756     
   3886000   310.45442      0.016631654    26.150393      770.24599     -27.731298      742.51469    
   3887000   295.17548      0.016631654    9.2395673      732.33851     -26.724647      705.61386    
   3888000   305.78485      0.016631654   -0.14536068     758.66064     -29.204629      729.45601    
   3889000   309.40138      0.016631654    4.9884618      767.63336     -29.288172      738.34519    
   3890000   299.54124      0.016631654    12.999069      743.17008     -33.700024      709.47005    
   3891000   285.49967      0.016631654    8.9868332      708.33254     -32.655664      675.67688    
   3892000   307.27911      0.016631654    1.5393224      762.36793     -32.089445      730.27849    
   3893000   300.27738      0.016631654    15.291317      744.99646     -31.153377      713.84308    
   3894000   309.9213       0.016631654    27.746068      768.9233      -32.431025      736.49227    
   3895000   299.65408      0.016631654    11.76116       743.45003     -32.316489      711.13354    
   3896000   275.46007      0.016631654    4.1248875      683.42403     -28.13257       655.29146    
   3897000   309.83692      0.016631654    7.3046984      768.71395     -30.384756      738.32919    
   3898000   310.99449      0.016631654    16.214251      771.58589     -28.465477      743.12042    
   3899000   307.92871      0.016631654    8.8119751      763.97962     -27.582476      736.39714    
   3900000   298.12421      0.016631654    7.5857841      739.65439     -30.427554      709.22683    
   3901000   298.82275      0.016631654    13.049625      741.38748     -29.309939      712.07754    
   3902000   299.491        0.016631654    9.2707059      743.04542     -28.405511      714.63991    
   3903000   290.9382       0.016631654    10.140475      721.8257      -32.571359      689.25434    
   3904000   300.13814      0.016631654    10.234632      744.651       -31.395395      713.25561    
   3905000   298.80752      0.016631654    4.7415555      741.34968     -29.67492       711.67476    
   3906000   304.74725      0.016631654    5.8904837      756.08633     -29.67323       726.4131     
   3907000   288.63051      0.016631654    9.5116652      716.10026     -27.148211      688.95205    
   3908000   297.57239      0.016631654    8.8828224      738.28531     -29.676658      708.60865    
   3909000   291.99584      0.016631654    8.3075949      724.44974     -31.196208      693.25353    
   3910000   295.98321      0.016631654    8.0076719      734.34251     -28.418569      705.92394    
   3911000   310.49779      0.016631654    8.473844       770.35358     -28.777853      741.57573    
   3912000   300.48811      0.016631654    9.3648502      745.51928     -30.827525      714.69175    
   3913000   284.63283      0.016631654    4.6313281      706.1819      -30.364676      675.81722    
   3914000   302.88518      0.016631654    11.667831      751.46648     -28.390508      723.07597    
   3915000   311.80316      0.016631654    10.891712      773.59222     -27.593453      745.99877    
   3916000   294.73955      0.016631654    1.1352218      731.25694     -23.720847      707.5361     
   3917000   291.61279      0.016631654    10.257994      723.49937     -29.235918      694.26345    
   3918000   299.69292      0.016631654    11.536093      743.54639     -29.806978      713.73941    
   3919000   312.79781      0.016631654    16.159904      776.06        -27.483008      748.57699    
   3920000   304.43102      0.016631654   -5.0780928      755.30176     -27.691977      727.60979    
   3921000   289.60259      0.016631654    8.3396851      718.51201     -27.612246      690.89976    
   3922000   304.60956      0.016631654    11.057294      755.74473     -30.115217      725.62951    
   3923000   314.80711      0.016631654    10.678953      781.04511     -30.373146      750.67197    
   3924000   303.77293      0.016631654   -4.9372591      753.66903     -33.714884      719.95414    
   3925000   293.54156      0.016631654    5.8929071      728.2847      -33.122118      695.16258    
   3926000   302.52045      0.016631654    7.732969       750.56157     -33.225441      717.33613    
   3927000   299.05181      0.016631654    8.0136812      741.95579     -33.130599      708.82519    
   3928000   298.84546      0.016631654    14.662294      741.44383     -30.316618      711.12721    
   3929000   306.11084      0.016631654    8.7535417      759.46943     -25.008351      734.46108    
   3930000   306.69443      0.016631654   -1.8299841      760.91732     -27.053589      733.86373    
   3931000   294.04589      0.016631654    13.99694       729.53597     -24.02003       705.51594    
   3932000   301.7828       0.016631654    12.540062      748.73144     -25.079929      723.65151    
   3933000   309.11742      0.016631654    3.1717286      766.92884     -24.017515      742.91133    
   3934000   288.83359      0.016631654    16.565661      716.60411     -30.046449      686.55766    
   3935000   284.02038      0.016631654    13.159155      704.6624      -31.561984      673.10041    
   3936000   307.16497      0.016631654    8.6213132      762.08476     -32.599156      729.4856     
   3937000   296.23222      0.016631654    8.813422       734.96031     -30.144449      704.81586    
   3938000   295.16278      0.016631654    7.8607733      732.30699     -30.070966      702.23602    
   3939000   293.20997      0.016631654    19.774391      727.46202     -29.985211      697.47681    
   3940000   306.87279      0.016631654    10.322748      761.35985     -27.16808       734.19177    
   3941000   301.41909      0.016631654    5.2956257      747.82907     -26.735669      721.0934     
   3942000   300.01643      0.016631654    7.2652582      744.34903     -31.698691      712.65034    
   3943000   305.73057      0.016631654    10.637351      758.52598     -26.810418      731.71556    
   3944000   312.51196      0.016631654    11.477177      775.35079     -28.894313      746.45647    
   3945000   305.41967      0.016631654    9.5810876      757.75463     -27.088194      730.66644    
   3946000   288.42879      0.016631654    5.9672826      715.59978     -30.43128       685.1685     
   3947000   295.91713      0.016631654    10.044665      734.17855     -32.920268      701.25828    
   3948000   316.51458      0.016631654    9.8452751      785.2814      -30.796507      754.48489    
   3949000   306.15193      0.016631654    9.55171        759.57138     -29.940301      729.63108    
   3950000   290.9226       0.016631654    11.221845      721.78699     -26.532624      695.25437    
   3951000   301.85065      0.016631654    8.6516739      748.89978     -28.872129      720.02765    
   3952000   300.15181      0.016631654    9.477918       744.68492     -28.06081       716.62411    
   3953000   308.63534      0.016631654    8.5092396      765.73279     -27.368679      738.36411    
   3954000   293.03507      0.016631654    9.0572793      727.02808     -28.708294      698.31978    
   3955000   301.2072       0.016631654    7.998296       747.30335     -29.906116      717.39724    
   3956000   292.27543      0.016631654    10.716996      725.14341     -30.250879      694.89253    
   3957000   309.53271      0.016631654    9.4259285      767.9592      -29.342709      738.61649    
   3958000   299.4835       0.016631654    6.0710217      743.02681     -30.866862      712.15995    
   3959000   301.60822      0.016631654    9.9687988      748.2983      -28.878055      719.42024    
   3960000   288.72478      0.016631654    9.3268622      716.33414     -30.924863      685.40928    
   3961000   296.9947       0.016631654    8.5571418      736.85203     -26.801408      710.05063    
   3962000   299.78026      0.016631654    8.0435475      743.76308     -26.759514      717.00356    
   3963000   295.49101      0.016631654    7.8338209      733.12134     -26.890729      706.23061    
   3964000   299.0262       0.016631654    12.001826      741.89224     -29.983355      711.90889    
   3965000   300.18698      0.016631654    7.8915145      744.77217     -31.149311      713.62286    
   3966000   306.87084      0.016631654    8.6457175      761.35501     -26.474543      734.88047    
   3967000   307.11812      0.016631654    10.155335      761.96853     -34.218037      727.75049    
   3968000   301.46895      0.016631654    11.242308      747.95278     -31.267206      716.68557    
   3969000   284.27784      0.016631654    4.0490409      705.30117     -29.824008      675.47716    
   3970000   298.95301      0.016631654    4.1676347      741.71066     -31.480838      710.22982    
   3971000   310.83744      0.016631654    9.4363368      771.19626     -30.282149      740.91411    
   3972000   305.34193      0.016631654    8.6270797      757.56174     -34.684056      722.87768    
   3973000   294.01526      0.016631654    11.025806      729.45996     -35.190882      694.26908    
   3974000   293.66256      0.016631654    11.238614      728.58491     -32.89504       695.68987    
   3975000   301.93815      0.016631654   -0.53021139     749.11688     -31.795569      717.32131    
   3976000   305.91221      0.016631654    9.897172       758.97664     -30.290524      728.68611    
   3977000   285.64987      0.016631654    12.794495      708.7052      -28.342018      680.36318    
   3978000   288.72832      0.016631654    7.3693394      716.34293     -25.014704      691.32823    
   3979000   312.544        0.016631654    10.085661      775.43028     -25.77752       749.65276    
   3980000   300.37178      0.016631654    9.5726018      745.23067     -28.89853       716.33214    
   3981000   291.35494      0.016631654    9.2774674      722.85964     -26.073512      696.78613    
   3982000   301.53762      0.016631654    8.9968271      748.12316     -30.501482      717.62168    
   3983000   317.63749      0.016631654    8.7274985      788.06736     -34.284383      753.78298    
   3984000   295.35184      0.016631654    7.1535758      732.77606     -30.688746      702.08731    
   3985000   291.33748      0.016631654    9.9996343      722.81631     -31.658875      691.15743    
   3986000   304.6686       0.016631654    5.5340954      755.89119     -30.689083      725.20211    
   3987000   272.15971      0.016631654    4.335664       675.23573     -27.392023      647.84371    
   3988000   293.90689      0.016631654    11.16085       729.1911      -27.425412      701.76569    
   3989000   318.07905      0.016631654    9.3890677      789.16288     -30.552558      758.61032    
   3990000   290.05768      0.016631654    3.379559       719.6411      -31.993633      687.64747    
   3991000   285.98326      0.016631654    13.256446      709.53235     -32.270888      677.26146    
   3992000   306.37852      0.016631654    14.935056      760.13355     -32.191727      727.94182    
   3993000   312.68733      0.016631654    8.1615102      775.7859      -31.062534      744.72336    
   3994000   300.52459      0.016631654    4.691275       745.6098      -30.281992      715.32781    
   3995000   283.44316      0.016631654    9.6143645      703.2303      -25.427729      677.80257    
   3996000   309.03755      0.016631654    13.884665      766.73067     -31.541522      735.18915    
   3997000   303.35001      0.016631654    5.4793796      752.61974     -29.636199      722.98354    
   3998000   282.25472      0.016631654    5.4306243      700.28175     -33.620404      666.66134    
   3999000   297.55434      0.016631654    12.751898      738.24053     -29.707544      708.53299    
   4000000   315.23458      0.016631654    3.3502535      782.10568     -36.607939      745.49774    
Loop time of 7145.41 on 1 procs for 4000000 steps with 1500 atoms

Performance: 12.092 ns/day, 1.985 hours/ns, 559.800 timesteps/s, 839.700 katom-step/s
100.0% CPU use with 1 MPI tasks x 1 OpenMP threads

MPI task timing breakdown:
Section |  min time  |  avg time  |  max time  |%varavg| %total
---------------------------------------------------------------
Pair    | 700.41     | 700.41     | 700.41     |   0.0 |  9.80
Bond    | 94.76      | 94.76      | 94.76      |   0.0 |  1.33
Kspace  | 5804       | 5804       | 5804       |   0.0 | 81.23
Neigh   | 0.03035    | 0.03035    | 0.03035    |   0.0 |  0.00
Comm    | 21.16      | 21.16      | 21.16      |   0.0 |  0.30
Output  | 0.09658    | 0.09658    | 0.09658    |   0.0 |  0.00
Modify  | 510.91     | 510.91     | 510.91     |   0.0 |  7.15
Other   |            | 14.05      |            |       |  0.20

Nlocal:           1500 ave        1500 max        1500 min
Histogram: 1 0 0 0 0 0 0 0 0 0
Nghost:           1221 ave        1221 max        1221 min
Histogram: 1 0 0 0 0 0 0 0 0 0
Neighs:              0 ave           0 max           0 min
Histogram: 1 0 0 0 0 0 0 0 0 0

Total # of neighbors = 0
Ave neighs/atom = 0
Ave special neighs/atom = 2
Neighbor list builds = 16117
Dangerous builds = 0
write_data	last_conf.data pair ij
System init for write_data ...
PPPM initialization ...
  using 12-bit tables for long-range coulomb (src/kspace.cpp:342)
  G vector (1/distance) = 0.163967
  grid = 27 27 27
  stencil order = 5
  estimated absolute RMS force accuracy = 0.036150669
  estimated relative force accuracy = 0.00010886667
  using double precision FFTW3
  3d grid and FFT values/proc = 32768 19683
Generated 1 of 1 mixed pair_coeff terms from arithmetic mixing rule
Total wall time: 1:59:06
