LAMMPS data file via write_data, version 29 Aug 2024, timestep = 0, units = real

1500 atoms
2 atom types
1000 bonds
1 bond types
500 angles
1 angle types

0 270 xlo xhi
0 270 ylo yhi
0 270 zlo zhi

Masses

1 12.0107
2 15.9994

PairIJ Coeffs # lj/cut/coul/long/gpu

1 1 0.053649 2.8 12
1 2 0.0917684 2.925 12
2 2 0.156973 3.05 12

Bond Coeffs # harmonic

1 0 1.16

Angle Coeffs # harmonic

1 0 180

Atoms # full

1 1 1 0.7 19.89270127839069 76.63038591231702 26.89602831234039 0 0 0
2 1 2 -0.35 18.885040534148473 76.86807193795059 26.372840795543834 0 0 0
3 1 2 -0.35 20.900362022632905 76.39269988668346 27.41921582913695 0 0 0
4 2 1 0.7 61.54784550496743 64.63940198749276 184.42920379081238 0 0 0
5 2 2 -0.35 61.89516536109701 65.13996907830497 183.44208601408363 0 0 0
6 2 2 -0.35 61.200525648837846 64.13883489668055 185.41632156754113 0 0 0
7 3 1 0.7 101.62811218371061 43.68147162426332 24.493588993555672 0 0 0
8 3 2 -0.35 101.16550332875764 42.61770840942681 24.492656212879638 0 0 0
9 3 2 -0.35 102.09072103866359 44.74523483909982 24.494521774231707 0 0 0
10 4 1 0.7 183.75021469022622 29.858298632250307 168.4251122309012 0 0 0
11 4 2 -0.35 182.6651553724672 30.057342570401467 168.78375939404296 0 0 0
12 4 2 -0.35 184.83527400798522 29.659254694099147 168.06646506775942 0 0 0
13 5 1 0.7 40.86126475635044 145.2767599817723 56.50501364679309 0 0 0
14 5 2 -0.35 40.68860598130601 145.56173843129253 57.616128506161466 0 0 0
15 5 2 -0.35 41.03392353139486 144.99178153225208 55.39389878742471 0 0 0
16 6 1 0.7 89.76436165150459 179.62627683748784 108.83480765802544 0 0 0
17 6 2 -0.35 88.67688746711517 179.7998364826781 108.47028475360378 0 0 0
18 6 2 -0.35 90.85183583589401 179.45271719229757 109.1993305624471 0 0 0
19 7 1 0.7 206.61230843356452 63.0678429189454 231.23593871539268 0 0 0
20 7 2 -0.35 205.59093583399937 63.33051903519273 230.75282457690082 0 0 0
21 7 2 -0.35 207.63368103312968 62.805166802698075 231.71905285388453 0 0 0
22 8 1 0.7 2.421989605027246 206.3792916929253 196.7554829953031 0 0 0
23 8 2 -0.35 1.9470962052975427 207.39672397474868 197.04687244397417 0 0 0
24 8 2 -0.35 2.8968830047569494 205.36185941110193 196.46409354663206 0 0 0
25 9 1 0.7 179.40270205931864 131.21351096835616 215.47884516207446 0 0 0
26 9 2 -0.35 179.06194505626985 131.92552954350987 214.62883680122778 0 0 0
27 9 2 -0.35 179.74345906236744 130.50149239320245 216.32885352292115 0 0 0
28 10 1 0.7 42.950638985703996 161.38943272707493 52.19584394814253 0 0 0
29 10 2 -0.35 42.95721829567834 160.4298907528577 52.84763832706545 0 0 0
30 10 2 -0.35 42.944059675729655 162.34897470129218 51.54404956921962 0 0 0
31 11 1 0.7 25.54923643150797 106.01670435444298 92.75008512323261 0 0 0
32 11 2 -0.35 25.154825459955426 105.98752627559531 93.84058437826846 0 0 0
33 11 2 -0.35 25.943647403060517 106.04588243329064 91.65958586819676 0 0 0
34 12 1 0.7 140.68066617039995 29.956325911896457 195.9696012437202 0 0 0
35 12 2 -0.35 139.7613273917732 30.639734203178044 196.15227394972916 0 0 0
36 12 2 -0.35 141.6000049490267 29.27291762061487 195.78692853771125 0 0 0
37 13 1 0.7 201.0881032054723 97.75057437259265 213.90348016466177 0 0 0
38 13 2 -0.35 201.17307338229443 96.59973181458417 213.78540613818967 0 0 0
39 13 2 -0.35 201.00313302865015 98.90141693060113 214.02155419113387 0 0 0
40 14 1 0.7 25.79112747022469 121.4793920663555 234.14245923708307 0 0 0
41 14 2 -0.35 25.090108064715633 121.138560120611 235.0015316309241 0 0 0
42 14 2 -0.35 26.49214687573375 121.8202240121 233.28338684324206 0 0 0
43 15 1 0.7 252.31239765524512 264.4673917044268 163.45237630114534 0 0 0
44 15 2 -0.35 251.5257605780313 264.473506672587 162.59987133581262 0 0 0
45 15 2 -0.35 253.09903473245893 264.4612767362666 164.30488126647805 0 0 0
46 16 1 0.7 164.08849335000315 55.30773350284795 217.07698236549135 0 0 0
47 16 2 -0.35 162.93896604638223 55.15755817945241 217.0365552647655 0 0 0
48 16 2 -0.35 165.23802065362406 55.4579088262435 217.1174094662172 0 0 0
49 17 1 0.7 172.8426168127184 35.86077135794832 71.98421303740899 0 0 0
50 17 2 -0.35 171.87089034274112 36.43246012779226 72.25719585368098 0 0 0
51 17 2 -0.35 173.8143432826957 35.289082588104385 71.711230221137 0 0 0
52 18 1 0.7 238.66851973285364 181.81115007112322 109.9992453679439 0 0 0
53 18 2 -0.35 237.85288119596518 182.43293552456817 109.45728907171079 0 0 0
54 18 2 -0.35 239.4841582697421 181.18936461767828 110.54120166417701 0 0 0
55 19 1 0.7 67.31689903294523 95.12204671051448 46.23906361695335 0 0 0
56 19 2 -0.35 67.13715839443725 95.43366531226908 45.136254862041945 0 0 0
57 19 2 -0.35 67.49663967145321 94.81042810875988 47.34187237186476 0 0 0
58 20 1 0.7 79.9422101350232 68.72573933504789 13.501004149904942 0 0 0
59 20 2 -0.35 80.86266926145409 68.66104745861836 14.203976381002393 0 0 0
60 20 2 -0.35 79.02175100859232 68.79043121147743 12.79803191880749 0 0 0
61 21 1 0.7 111.37674745236372 268.9944318770405 109.41655741977345 0 0 0
62 21 2 -0.35 112.18638412349277 268.2659613920067 109.81583077625712 0 0 0
63 21 2 -0.35 110.56711078123466 269.72290236207425 109.0172840632898 0 0 0
64 22 1 0.7 264.0805541323873 141.8733030333525 94.60408155555095 0 0 0
65 22 2 -0.35 263.1552491198575 141.18892963141903 94.4590171542899 0 0 0
66 22 2 -0.35 265.0058591449171 142.55767643528597 94.749145956812 0 0 0
67 23 1 0.7 250.79870414491683 203.82056361707885 122.21271224422972 0 0 0
68 23 2 -0.35 251.5613428901633 204.42027515746403 121.57684416626249 0 0 0
69 23 2 -0.35 250.03606539967035 203.22085207669366 122.84858032219695 0 0 0
70 24 1 0.7 139.05468876895247 242.15413978423652 174.6273536629171 0 0 0
71 24 2 -0.35 138.23525105379252 242.89401659855983 174.98330889970995 0 0 0
72 24 2 -0.35 139.87412648411242 241.4142629699132 174.27139842612425 0 0 0
73 25 1 0.7 61.93301264752308 58.143566920488865 88.9292326564571 0 0 0
74 25 2 -0.35 60.88919198059489 57.66020066185674 88.77958147767934 0 0 0
75 25 2 -0.35 62.97683331445127 58.62693317912099 89.07888383523486 0 0 0
76 26 1 0.7 183.61325707454853 158.01165193692393 251.83410388037288 0 0 0
77 26 2 -0.35 182.53219093113114 158.3085602619459 251.53620886515895 0 0 0
78 26 2 -0.35 184.69432321796592 157.71474361190195 252.1319988955868 0 0 0
79 27 1 0.7 55.78391742696237 120.30019495650204 125.37663392972975 0 0 0
80 27 2 -0.35 54.93723280589828 120.22595838402903 124.58719483533359 0 0 0
81 27 2 -0.35 56.630602048026454 120.37443152897505 126.16607302412591 0 0 0
82 28 1 0.7 125.08645696802365 108.0822615735616 248.57026684962693 0 0 0
83 28 2 -0.35 124.25616023871987 108.63681388597793 249.16075738646995 0 0 0
84 28 2 -0.35 125.91675369732744 107.52770926114526 247.9797763127839 0 0 0
85 29 1 0.7 10.474941679497688 12.344807317641008 119.17658759242697 0 0 0
86 29 2 -0.35 9.315569004656142 12.369601141817695 119.20557495369799 0 0 0
87 29 2 -0.35 11.634314354339233 12.320013493464321 119.14760023115595 0 0 0
88 30 1 0.7 140.90766591993517 65.14111635048926 246.74250267294352 0 0 0
89 30 2 -0.35 139.98784043059885 65.19015066251772 246.03743763664465 0 0 0
90 30 2 -0.35 141.8274914092715 65.09208203846079 247.44756770924238 0 0 0
91 31 1 0.7 71.24242416175196 191.42288656505892 194.4544989450157 0 0 0
92 31 2 -0.35 71.55460430338591 190.43734455268097 193.92833309567973 0 0 0
93 31 2 -0.35 70.930244020118 192.40842857743687 194.98066479435167 0 0 0
94 32 1 0.7 116.76376887912106 88.66355138768608 38.308172839837226 0 0 0
95 32 2 -0.35 115.97239760465696 87.8160966395098 38.274232366261884 0 0 0
96 32 2 -0.35 117.55514015358516 89.51100613586237 38.34211331341257 0 0 0
97 33 1 0.7 165.46091914431236 171.66805845762977 5.0584973837521385 0 0 0
98 33 2 -0.35 164.31978763222068 171.50469269600404 5.187843817950407 0 0 0
99 33 2 -0.35 166.60205065640403 171.8314242192555 4.92915094955387 0 0 0
100 34 1 0.7 238.1655287221845 98.04123375473601 239.01571584819618 0 0 0
101 34 2 -0.35 237.1669110989065 97.98882613588218 238.42782446029813 0 0 0
102 34 2 -0.35 239.16414634546248 98.09364137358985 239.60360723609423 0 0 0
103 35 1 0.7 77.13626063295466 159.1324580689578 189.22276497316673 0 0 0
104 35 2 -0.35 75.9900490722288 159.31066015962207 189.21620197527977 0 0 0
105 35 2 -0.35 78.28247219368052 158.9542559782935 189.2293279710537 0 0 0
106 36 1 0.7 207.01090401364996 12.263757415238654 106.9708779160729 0 0 0
107 36 2 -0.35 206.0302712163935 11.708909221337413 107.24674527309334 0 0 0
108 36 2 -0.35 207.99153681090644 12.818605609139896 106.69501055905245 0 0 0
109 37 1 0.7 199.5451354372991 85.09129468588684 209.3897857001935 0 0 0
110 37 2 -0.35 198.38592877399515 85.08871568161244 209.34696910891546 0 0 0
111 37 2 -0.35 200.70434210060307 85.09387369016123 209.43260229147154 0 0 0
112 38 1 0.7 34.128263152264175 113.71880010409225 211.87334947840932 0 0 0
113 38 2 -0.35 34.17125126124188 114.32808228879824 210.88718152015554 0 0 0
114 38 2 -0.35 34.08527504328647 113.10951791938626 212.8595174366631 0 0 0
115 39 1 0.7 195.38468362548605 90.37769354431782 227.89539934969292 0 0 0
116 39 2 -0.35 194.59609676108263 89.66312255242394 227.4337511558979 0 0 0
117 39 2 -0.35 196.17327048988946 91.0922645362117 228.35704754348794 0 0 0
118 40 1 0.7 17.976870289061626 7.258948258710536 231.14338414796785 0 0 0
119 40 2 -0.35 17.725192029570263 7.299529149622386 232.27502510029868 0 0 0
120 40 2 -0.35 18.22854854855299 7.2183673677986855 230.01174319563702 0 0 0
121 41 1 0.7 66.8573748957633 201.89987309365526 241.1670850641872 0 0 0
122 41 2 -0.35 66.33634246502324 202.65259436765834 240.45466953250622 0 0 0
123 41 2 -0.35 67.37840732650336 201.14715181965218 241.8795005958682 0 0 0
124 42 1 0.7 55.19867379460422 4.110465913131119 234.60060199471218 0 0 0
125 42 2 -0.35 54.05605346446251 3.9439854300557062 234.7115210187875 0 0 0
126 42 2 -0.35 56.34129412474593 4.276946396206531 234.48968297063686 0 0 0
127 43 1 0.7 122.31772512771083 14.006221435967005 232.56367429744623 0 0 0
128 43 2 -0.35 123.42278469971833 14.063987743134998 232.21567085483287 0 0 0
129 43 2 -0.35 121.21266555570332 13.948455128799012 232.9116777400596 0 0 0
130 44 1 0.7 177.67391717884405 235.52602483216953 15.899354273406487 0 0 0
131 44 2 -0.35 177.05313832318964 236.40834663888512 15.47304236673895 0 0 0
132 44 2 -0.35 178.29469603449846 234.64370302545393 16.325666180074023 0 0 0
133 45 1 0.7 190.4472731428441 267.3197117807901 42.39589973930079 0 0 0
134 45 2 -0.35 189.32530855344328 267.0877184633977 42.57748872799755 0 0 0
135 45 2 -0.35 191.56923773224491 267.5517050981825 42.21431075060403 0 0 0
136 46 1 0.7 17.886918428301307 115.43802446007638 216.87710050348056 0 0 0
137 46 2 -0.35 17.57916955585306 115.09529531574658 217.9417259611575 0 0 0
138 46 2 -0.35 18.194667300749554 115.78075360440617 215.81247504580364 0 0 0
139 47 1 0.7 53.42816199801311 217.11870060633808 64.00109072402171 0 0 0
140 47 2 -0.35 52.704552060258536 217.26696036640192 64.89552222029666 0 0 0
141 47 2 -0.35 54.151771935767684 216.97044084627424 63.10665922774677 0 0 0
142 48 1 0.7 256.3317986327837 48.53962119600718 135.41344129266844 0 0 0
143 48 2 -0.35 255.32175028548593 47.97464366145859 135.49219865153998 0 0 0
144 48 2 -0.35 257.34184698008147 49.10459873055577 135.3346839337969 0 0 0
145 49 1 0.7 63.70780587834669 187.0933973729114 58.72964652196022 0 0 0
146 49 2 -0.35 63.88797764956258 186.20266295636756 58.008723272202495 0 0 0
147 49 2 -0.35 63.5276341071308 187.98413178945523 59.450569771717944 0 0 0
148 50 1 0.7 219.16909458542665 234.97269726589914 166.12294796673717 0 0 0
149 50 2 -0.35 218.49930247003562 234.18007725064797 166.64134167192972 0 0 0
150 50 2 -0.35 219.83888670081768 235.76531728115032 165.60455426154462 0 0 0
151 51 1 0.7 228.38647695183124 171.5181294276929 185.20129123479188 0 0 0
152 51 2 -0.35 227.56256718517017 172.07306805374543 185.80030360337489 0 0 0
153 51 2 -0.35 229.21038671849232 170.9631908016404 184.60227886620888 0 0 0
154 52 1 0.7 118.10178314712914 166.6693537992748 231.82930441192784 0 0 0
155 52 2 -0.35 118.05063668782499 165.51051364917092 231.83788032050163 0 0 0
156 52 2 -0.35 118.15292960643329 167.8281939493787 231.82072850335405 0 0 0
157 53 1 0.7 255.11925127129967 189.2561167335399 227.55394060516446 0 0 0
158 53 2 -0.35 254.07957990987987 189.1782720410637 227.04539005300984 0 0 0
159 53 2 -0.35 256.1589226327195 189.3339614260161 228.06249115731907 0 0 0
160 54 1 0.7 219.07975099937977 83.37504657608227 254.4078042145855 0 0 0
161 54 2 -0.35 218.35954072418497 84.24451497165683 254.67411581516058 0 0 0
162 54 2 -0.35 219.79996127457457 82.50557818050771 254.14149261401042 0 0 0
163 55 1 0.7 111.9654345381844 173.05828326524156 150.56683891479244 0 0 0
164 55 2 -0.35 111.14219077664076 172.89136148475635 151.3668431824555 0 0 0
165 55 2 -0.35 112.78867829972803 173.22520504572677 149.76683464712937 0 0 0
166 56 1 0.7 136.8616409166072 103.59888541679777 226.46720012019722 0 0 0
167 56 2 -0.35 135.72258493104206 103.5440070406766 226.25473876940006 0 0 0
168 56 2 -0.35 138.00069690217234 103.65376379291894 226.67966147099438 0 0 0
169 57 1 0.7 44.232420154955435 104.2855443359751 157.1436547334975 0 0 0
170 57 2 -0.35 43.12407807997065 104.35329982650057 156.80811481288882 0 0 0
171 57 2 -0.35 45.34076222994022 104.21778884544963 157.47919465410618 0 0 0
172 58 1 0.7 243.40510589229183 139.61473174840896 204.7964955097048 0 0 0
173 58 2 -0.35 243.77815368428224 138.60607709255157 205.23129561332516 0 0 0
174 58 2 -0.35 243.0320581003014 140.62338640426634 204.36169540608446 0 0 0
175 59 1 0.7 54.70003160866911 263.4312469015975 28.966675148795673 0 0 0
176 59 2 -0.35 54.44399455144824 262.3744824614846 28.56257869565292 0 0 0
177 59 2 -0.35 54.95606866588997 264.4880113417104 29.370771601938426 0 0 0
178 60 1 0.7 32.90922580887993 145.35816984500653 74.76058502437574 0 0 0
179 60 2 -0.35 31.889418081119945 145.09290214988152 74.27558476837162 0 0 0
180 60 2 -0.35 33.92903353663992 145.62343754013153 75.24558528037987 0 0 0
181 61 1 0.7 191.15250468307758 240.14620848472518 177.32600277630894 0 0 0
182 61 2 -0.35 190.08212927677792 240.44089734581547 177.66223924776634 0 0 0
183 61 2 -0.35 192.22288008937724 239.85151962363489 176.98976630485154 0 0 0
184 62 1 0.7 58.1286614239815 108.41255285703231 129.77586814191932 0 0 0
185 62 2 -0.35 58.69271421948425 109.22366397446132 130.38376879093082 0 0 0
186 62 2 -0.35 57.564608628478744 107.6014417396033 129.16796749290782 0 0 0
187 63 1 0.7 83.01586123789468 157.57982529587102 14.123747704608249 0 0 0
188 63 2 -0.35 81.95199244062957 158.0050147061138 13.942096534441202 0 0 0
189 63 2 -0.35 84.0797300351598 157.15463588562824 14.305398874775296 0 0 0
190 64 1 0.7 47.82767135083101 49.672393416833316 3.916156717537044 0 0 0
191 64 2 -0.35 47.867918680503074 50.579532829851814 3.194299226197706 0 0 0
192 64 2 -0.35 47.78742402115895 48.76525400381482 4.638014208876382 0 0 0
193 65 1 0.7 208.84595164509767 73.90929915658631 193.5909247461664 0 0 0
194 65 2 -0.35 209.1159598973796 73.29549283391057 194.53746441355648 0 0 0
195 65 2 -0.35 208.57594339281573 74.52310547926206 192.6443850787763 0 0 0
196 66 1 0.7 182.67220881892004 1.8136195893462839 241.50443814299277 0 0 0
197 66 2 -0.35 181.9294014163488 2.04044714887771 240.64281965379791 0 0 0
198 66 2 -0.35 183.41501622149127 1.5867920298148577 242.36605663218762 0 0 0
199 67 1 0.7 55.09186927931936 99.04697752047655 132.55118664938547 0 0 0
200 67 2 -0.35 54.69564377800877 98.05563268021712 132.0974898786209 0 0 0
201 67 2 -0.35 55.48809478062995 100.03832236073598 133.00488342015004 0 0 0
202 68 1 0.7 17.794016221442266 174.03063378018823 22.86194362345242 0 0 0
203 68 2 -0.35 17.13931826279045 174.69633681003972 22.17360500112786 0 0 0
204 68 2 -0.35 18.448714180094083 173.36493075033673 23.550282245776977 0 0 0
205 69 1 0.7 30.686479364841468 47.658684890558334 179.51695561386504 0 0 0
206 69 2 -0.35 29.58411059574336 47.71489504161509 179.87363966990804 0 0 0
207 69 2 -0.35 31.788848133939574 47.60247473950158 179.16027155782203 0 0 0
208 70 1 0.7 161.47300222957182 106.74847241339668 241.57585195804754 0 0 0
209 70 2 -0.35 160.35923186072668 106.82658871909638 241.26118799718384 0 0 0
210 70 2 -0.35 162.58677259841696 106.67035610769699 241.89051591891123 0 0 0
211 71 1 0.7 175.34385890483105 224.23661349538557 84.76301694510644 0 0 0
212 71 2 -0.35 176.3871800754135 223.79753750290593 85.0165779985876 0 0 0
213 71 2 -0.35 174.3005377342486 224.6756894878652 84.5094558916253 0 0 0
214 72 1 0.7 92.02579640412041 117.56016405185692 243.67721955928823 0 0 0
215 72 2 -0.35 90.86855193521268 117.57844687798031 243.75500758826064 0 0 0
216 72 2 -0.35 93.18304087302815 117.54188122573352 243.59943153031583 0 0 0
217 73 1 0.7 123.02913295711816 90.6376102849085 6.316058457044912 0 0 0
218 73 2 -0.35 122.97724581658568 91.73158505745765 6.698323969056386 0 0 0
219 73 2 -0.35 123.08102009765065 89.54363551235936 5.933792945033439 0 0 0
220 74 1 0.7 43.99448755383234 155.35231726027666 106.39619347005906 0 0 0
221 74 2 -0.35 42.84513680863701 155.44793247333922 106.27189304548243 0 0 0
222 74 2 -0.35 45.14383829902768 155.2567020472141 106.52049389463569 0 0 0
223 75 1 0.7 260.8236512825003 213.10710498276498 141.1134453309297 0 0 0
224 75 2 -0.35 260.28636141363535 212.41478107596012 140.35344059089084 0 0 0
225 75 2 -0.35 261.36094115136524 213.79942888956984 141.87345007096854 0 0 0
226 76 1 0.7 13.675676935201361 77.10224992926338 127.51456112950788 0 0 0
227 76 2 -0.35 14.633091167127096 77.43091929885631 128.08107188315466 0 0 0
228 76 2 -0.35 12.718262703275625 76.77358055967045 126.9480503758611 0 0 0
229 77 1 0.7 147.22890363877121 196.18345682797184 15.358907722569493 0 0 0
230 77 2 -0.35 146.4093731201286 196.7889640497255 14.804533540795536 0 0 0
231 77 2 -0.35 148.04843415741382 195.57794960621817 15.91328190434345 0 0 0
232 78 1 0.7 17.162093225476376 83.30084058144169 87.22765229047633 0 0 0
233 78 2 -0.35 17.298045814022547 82.79358216591268 86.19333812469178 0 0 0
234 78 2 -0.35 17.026140636930204 83.8080989969707 88.26196645626088 0 0 0
235 79 1 0.7 205.15204603558036 90.43771999908505 156.76002462243662 0 0 0
236 79 2 -0.35 204.23910894649217 89.81390292466496 156.4093137314892 0 0 0
237 79 2 -0.35 206.06498312466854 91.06153707350514 157.11073551338404 0 0 0
238 80 1 0.7 5.733829292344781 248.4689164387383 197.07858587479151 0 0 0
239 80 2 -0.35 6.668938641275804 247.87580200778808 197.4241083448863 0 0 0
240 80 2 -0.35 4.798719943413759 249.0620308696885 196.73306340469674 0 0 0
241 81 1 0.7 209.7927976212431 57.549620232335116 96.46724485627713 0 0 0
242 81 2 -0.35 209.04879389392224 58.385407552056805 96.77305200126415 0 0 0
243 81 2 -0.35 210.53680134856396 56.71383291261343 96.16143771129012 0 0 0
244 82 1 0.7 244.98429944970846 221.120851249956 98.14695801033963 0 0 0
245 82 2 -0.35 245.25969829751023 220.08115354962007 98.58145100976043 0 0 0
246 82 2 -0.35 244.7089006019067 222.1605489502919 97.71246501091883 0 0 0
247 83 1 0.7 125.92327977806482 132.563229935506 220.2055260493446 0 0 0
248 83 2 -0.35 125.04000211634758 132.61185385328167 219.4551552830354 0 0 0
249 83 2 -0.35 126.80655743978207 132.51460601773033 220.9558968156538 0 0 0
250 84 1 0.7 104.27631133435122 1.9645964409991152 78.97238387212735 0 0 0
251 84 2 -0.35 105.4274177445834 1.8212611609517104 78.96937890688285 0 0 0
252 84 2 -0.35 103.12520492411905 2.10793172104652 78.97538883737185 0 0 0
253 85 1 0.7 238.8557388441897 88.40275429580488 245.09144959277074 0 0 0
254 85 2 -0.35 239.76171645910912 87.72265449056943 244.84191238876383 0 0 0
255 85 2 -0.35 237.94976122927025 89.08285410104034 245.34098679677766 0 0 0
256 86 1 0.7 131.99330569803402 91.48886685794632 3.385281503845603 0 0 0
257 86 2 -0.35 131.35795504238268 91.80400711757666 4.3032227661949545 0 0 0
258 86 2 -0.35 132.62865635368536 91.17372659831598 2.4673402414962515 0 0 0
259 87 1 0.7 196.42623513304918 45.73388115769898 229.34061744685312 0 0 0
260 87 2 -0.35 196.11279970217603 45.2248423289709 230.33471890119293 0 0 0
261 87 2 -0.35 196.73967056392232 46.24291998642706 228.3465159925133 0 0 0
262 88 1 0.7 7.75742926064759 239.11358370404392 102.00131386611673 0 0 0
263 88 2 -0.35 7.762079987146128 238.85472667351266 100.87057454669444 0 0 0
264 88 2 -0.35 7.752778534149051 239.37244073457518 103.13205318553902 0 0 0
265 89 1 0.7 106.08214782368492 112.65847267241146 210.9502052194207 0 0 0
266 89 2 -0.35 105.30605316357952 113.15113749253784 210.24270366213216 0 0 0
267 89 2 -0.35 106.85824248379032 112.16580785228508 211.65770677670923 0 0 0
268 90 1 0.7 70.0991228037044 145.95696185992887 148.65797982488664 0 0 0
269 90 2 -0.35 70.85326067794503 145.1812071588354 149.0764062943735 0 0 0
270 90 2 -0.35 69.34498492946378 146.73271656102233 148.23955335539978 0 0 0
271 91 1 0.7 184.6669168698913 46.871832263130614 184.88484643627183 0 0 0
272 91 2 -0.35 183.66089887627504 46.673339880331135 184.34251022091192 0 0 0
273 91 2 -0.35 185.67293486350758 47.07032464593009 185.42718265163174 0 0 0
274 92 1 0.7 199.6140544207832 163.4126501034073 36.41028796621146 0 0 0
275 92 2 -0.35 198.72807472958112 163.1201526934651 37.09955224930948 0 0 0
276 92 2 -0.35 200.50003411198526 163.7051475133495 35.721023683113444 0 0 0
277 93 1 0.7 127.70984811601687 189.41728589563505 236.32404793814013 0 0 0
278 93 2 -0.35 126.550852093458 189.37009757974593 236.33412179223308 0 0 0
279 93 2 -0.35 128.86884413857572 189.46447421152416 236.31397408404717 0 0 0
280 94 1 0.7 198.27369632119022 46.01407024358123 78.47858386974717 0 0 0
281 94 2 -0.35 198.36315137946235 45.35177299584691 79.42671895938001 0 0 0
282 94 2 -0.35 198.18424126291808 46.67636749131555 77.53044878011433 0 0 0
283 95 1 0.7 39.55909884048584 129.7742120454899 55.18184854890306 0 0 0
284 95 2 -0.35 38.40820707066951 129.63551826066163 55.22441811806998 0 0 0
285 95 2 -0.35 40.709990610302164 129.91290583031815 55.13927897973615 0 0 0
286 96 1 0.7 261.32856141372054 59.13168040063776 226.15249351884822 0 0 0
287 96 2 -0.35 260.7103806334888 59.46680631963596 227.07506771172797 0 0 0
288 96 2 -0.35 261.9467421939523 58.79655448163957 225.22991932596847 0 0 0
289 97 1 0.7 154.95857128173049 238.70753204389825 27.491061798059874 0 0 0
290 97 2 -0.35 154.95057363323997 239.16899973029064 26.42683268173469 0 0 0
291 97 2 -0.35 154.966568930221 238.24606435750587 28.555290914385058 0 0 0
292 98 1 0.7 72.27563999233564 6.68135118516225 243.46936902192857 0 0 0
293 98 2 -0.35 71.98418958427665 6.097594244884847 244.42847511320326 0 0 0
294 98 2 -0.35 72.56709040039463 7.265108125439654 242.51026293065388 0 0 0
295 99 1 0.7 139.68515155356616 38.342160786661395 196.69634141805412 0 0 0
296 99 2 -0.35 138.58784993598795 38.06650898594896 196.44032336239354 0 0 0
297 99 2 -0.35 140.78245317114437 38.617812587373834 196.9523594737147 0 0 0
298 100 1 0.7 265.410213235491 79.45384889815648 230.838431315887 0 0 0
299 100 2 -0.35 265.14262271580986 80.57072241905527 230.6753704312706 0 0 0
300 100 2 -0.35 265.6778037551722 78.33697537725769 231.00149220050338 0 0 0
301 101 1 0.7 71.51512611262274 184.72457485027823 205.92950862642823 0 0 0
302 101 2 -0.35 70.64399000953031 184.6292068774344 205.1694909689724 0 0 0
303 101 2 -0.35 72.38626221571516 184.81994282312206 206.68952628388405 0 0 0
304 102 1 0.7 197.25148437882376 145.69795489110888 115.52785486705967 0 0 0
305 102 2 -0.35 198.34680480965062 146.07980391708514 115.51982522359242 0 0 0
306 102 2 -0.35 196.1561639479969 145.3161058651326 115.53588451052693 0 0 0
307 103 1 0.7 106.65675067187136 50.008542141881094 253.56777859552193 0 0 0
308 103 2 -0.35 105.63064749250812 49.468863621987715 253.52957701877006 0 0 0
309 103 2 -0.35 107.68285385123461 50.54822066177447 253.6059801722738 0 0 0
310 104 1 0.7 33.65485493729583 257.14693113097314 248.47151826530302 0 0 0
311 104 2 -0.35 32.495260079242236 257.1687712464093 248.4500060703104 0 0 0
312 104 2 -0.35 34.814449795349425 257.125091015537 248.49303046029564 0 0 0
313 105 1 0.7 240.807484947521 221.39951298544162 191.61474631708802 0 0 0
314 105 2 -0.35 239.92754174808977 222.04557173694437 191.22243514546346 0 0 0
315 105 2 -0.35 241.68742814695224 220.75345423393887 192.00705748871258 0 0 0
316 106 1 0.7 179.0413512983552 267.9912714557681 259.299357095407 0 0 0
317 106 2 -0.35 177.91132222488937 267.9126976375814 259.04943621149073 0 0 0
318 106 2 -0.35 180.17138037182104 268.06984527395485 259.5492779793233 0 0 0
319 107 1 0.7 244.29470250583006 241.0650154860062 229.71527330564118 0 0 0
320 107 2 -0.35 244.9936950190072 240.1475374457063 229.83873792441838 0 0 0
321 107 2 -0.35 243.59570999265293 241.9824935263061 229.59180868686397 0 0 0
322 108 1 0.7 94.59844791078866 156.11403662530427 218.6135614889737 0 0 0
323 108 2 -0.35 95.7495007153195 156.15836320795563 218.75035547733634 0 0 0
324 108 2 -0.35 93.44739510625783 156.0697100426529 218.47676750061103 0 0 0
325 109 1 0.7 78.12794518104194 86.37465777172459 178.8731693750588 0 0 0
326 109 2 -0.35 76.98003752042514 86.47585523782253 178.74025182334867 0 0 0
327 109 2 -0.35 79.27585284165873 86.27346030562664 179.00608692676894 0 0 0
328 110 1 0.7 141.35768661338727 68.63891120005349 174.18053929888666 0 0 0
329 110 2 -0.35 142.12892939095994 69.40412760014992 174.58702231091232 0 0 0
330 110 2 -0.35 140.5864438358146 67.87369479995705 173.774056286861 0 0 0
331 111 1 0.7 112.32399638850428 259.4073015914333 168.5178472187919 0 0 0
332 111 2 -0.35 111.48514462171403 259.7000596533622 169.26364908961853 0 0 0
333 111 2 -0.35 113.16284815529454 259.1145435295044 167.77204534796527 0 0 0
334 112 1 0.7 249.45820623517884 84.07219465080286 91.37549604353285 0 0 0
335 112 2 -0.35 248.58297597566195 83.35737420643852 91.63741917184491 0 0 0
336 112 2 -0.35 250.33343649469572 84.78701509516719 91.11357291522079 0 0 0
337 113 1 0.7 257.9620036566453 177.39545723767742 145.44979364399325 0 0 0
338 113 2 -0.35 256.96985248569985 177.97221915213262 145.61885501753986 0 0 0
339 113 2 -0.35 258.9541548275908 176.81869532322222 145.28073227044663 0 0 0
340 114 1 0.7 264.6817745942072 256.5856048402309 264.2605497614763 0 0 0
341 114 2 -0.35 263.59911702488665 256.3232355642308 263.93710741637574 0 0 0
342 114 2 -0.35 265.7644321635277 256.84797411623106 264.58399210657683 0 0 0
343 115 1 0.7 197.05984113135366 164.74989466124677 101.47957157412525 0 0 0
344 115 2 -0.35 197.9734660123728 164.88424110717278 100.77754549964523 0 0 0
345 115 2 -0.35 196.14621625033453 164.61554821532076 102.18159764860526 0 0 0
346 116 1 0.7 247.15944632289904 58.81434896439982 22.763044667785543 0 0 0
347 116 2 -0.35 247.3885255854075 57.7393166186313 22.39233164260297 0 0 0
348 116 2 -0.35 246.93036706039058 59.88938131016834 23.133757692968118 0 0 0
349 117 1 0.7 258.49173147161105 170.53084336711598 61.88447111839637 0 0 0
350 117 2 -0.35 258.68225543375394 170.4191612020199 60.745687682510145 0 0 0
351 117 2 -0.35 258.30120750946816 170.64252553221206 63.023254554282595 0 0 0
352 118 1 0.7 52.30608688774802 258.4023223809909 17.832257313575717 0 0 0
353 118 2 -0.35 51.15149505084672 258.4751147802483 17.917221757734534 0 0 0
354 118 2 -0.35 53.46067872464933 258.32952998173346 17.7472928694169 0 0 0
355 119 1 0.7 6.7486692670493715 24.88437129877711 1.6284185469282877 0 0 0
356 119 2 -0.35 7.745764990836491 25.31098759587502 2.03999922268446 0 0 0
357 119 2 -0.35 5.751573543262252 24.457755001679203 1.2168378711721153 0 0 0
358 120 1 0.7 98.83051822373201 4.519786264058103 94.04774002453674 0 0 0
359 120 2 -0.35 98.17846483802774 3.6353643537866427 94.41952526741677 0 0 0
360 120 2 -0.35 99.48257160943629 5.404208174329564 93.6759547816567 0 0 0
361 121 1 0.7 80.36659238877081 181.3182780711531 196.29954187027155 0 0 0
362 121 2 -0.35 79.32125296519897 180.8374947947436 196.44689495185256 0 0 0
363 121 2 -0.35 81.41193181234266 181.79906134756257 196.15218878869055 0 0 0
364 122 1 0.7 76.40021365433941 208.39088848251427 255.66272561702073 0 0 0
365 122 2 -0.35 75.44707035031186 207.80064627150952 255.3648464899647 0 0 0
366 122 2 -0.35 77.35335695836696 208.98113069351902 255.96060474407676 0 0 0
367 123 1 0.7 143.42944526738927 58.686609011463176 35.83765566155205 0 0 0
368 123 2 -0.35 143.42045339171347 59.220990559032714 34.808114255007844 0 0 0
369 123 2 -0.35 143.43843714306507 58.15222746389364 36.86719706809625 0 0 0
370 124 1 0.7 223.4787037053512 36.573175837552725 165.3663017486065 0 0 0
371 124 2 -0.35 222.32662617737523 36.67031574343113 165.4605419110572 0 0 0
372 124 2 -0.35 224.63078123332716 36.47603593167432 165.27206158615581 0 0 0
373 125 1 0.7 201.4334888297289 232.64676125377733 224.11639223532583 0 0 0
374 125 2 -0.35 200.55451933289066 233.02645375070745 223.46152871412244 0 0 0
375 125 2 -0.35 202.31245832656714 232.2670687568472 224.77125575652923 0 0 0
376 126 1 0.7 224.20429912125894 81.65533099866255 241.14809452143874 0 0 0
377 126 2 -0.35 223.5601664843179 80.75977495973885 241.50680405180373 0 0 0
378 126 2 -0.35 224.84843175819998 82.55088703758625 240.78938499107375 0 0 0
379 127 1 0.7 6.024621821020088 5.81894588462028 59.02348281304514 0 0 0
380 127 2 -0.35 5.674159690688944 6.768729665976518 59.58977519678026 0 0 0
381 127 2 -0.35 6.3750839513512325 4.869162103264043 58.457190429310025 0 0 0
382 128 1 0.7 27.67563884969598 204.46214684027348 105.30194447622726 0 0 0
383 128 2 -0.35 26.767200056079556 203.9381314513092 104.80621589082861 0 0 0
384 128 2 -0.35 28.5840776433124 204.98616222923775 105.79767306162591 0 0 0
385 129 1 0.7 229.78081195139364 116.10646707290152 111.39209425607328 0 0 0
386 129 2 -0.35 228.72030799143678 116.57127365607495 111.46199555187296 0 0 0
387 129 2 -0.35 230.8413159113505 115.6416604897281 111.3221929602736 0 0 0
388 130 1 0.7 256.92816182362293 81.61576963105043 116.24018906440595 0 0 0
389 130 2 -0.35 255.8583224961322 81.38957415612009 115.85304642857876 0 0 0
390 130 2 -0.35 257.99800115111367 81.84196510598076 116.62733170023314 0 0 0