LAMMPS data file via write_data, version 29 Aug 2024, timestep = 4000000, units = real

1500 atoms
2 atom types
1000 bonds
1 bond types
500 angles
1 angle types

0 270 xlo xhi
0 270 ylo yhi
0 270 zlo zhi

Masses

1 12.0107
2 15.9994

PairIJ Coeffs # lj/cut/coul/long/gpu

1 1 0.053649 2.8 12
1 2 0.0917684 2.925 12
2 2 0.156973 3.05 12

Bond Coeffs # harmonic

1 0 1.16

Angle Coeffs # harmonic

1 0 180

Atoms # full

558 186 2 -0.35 46.654693890728566 24.113892699284133 15.571904482680083 9 3 4
1306 436 1 0.7 63.85280012581186 17.586389734762484 1.096780758502336 0 1 1
1308 436 2 -0.35 63.439062994490605 16.804787768337047 0.3461010982976661 0 1 1
1307 436 2 -0.35 64.26653725713311 18.367991701187925 1.8474604187070058 0 1 1
1298 433 2 -0.35 66.46042926722319 8.396395254717653 14.311123937264204 -4 6 -13
1297 433 1 0.7 66.25358851604207 8.962259344394916 15.302393192140098 -4 6 -13
1299 433 2 -0.35 66.04674776486094 9.52812343407218 16.29366244701599 -4 6 -13
684 228 2 -0.35 84.17128520606862 22.31439551107541 6.320540079029296 0 4 0
682 228 1 0.7 83.28524093047298 21.664260956447496 5.949257703251798 0 4 0
683 228 2 -0.35 82.39919665487736 21.01412640181958 5.5779753274743005 0 4 0
301 101 1 0.7 107.96362129962047 269.9222324631599 10.34418667365639 -1 -7 0
303 101 2 -0.35 107.73863125776472 0.27513686379437313 11.426054486782789 -1 -6 0
1074 358 2 -0.35 187.99650148122413 6.726600628946275 15.216662184004203 4 -4 -2
1073 358 2 -0.35 187.0049676339447 8.755811119122697 14.686034804147074 4 -4 -2
1072 358 1 0.7 187.5007345575844 7.741205874034486 14.951348494075638 4 -4 -2
556 186 1 0.7 46.29070368141753 25.215160088096543 15.553980591801654 9 3 4
557 186 2 -0.35 45.9267134721065 26.316427476908956 15.536056700923227 9 3 4
785 262 2 -0.35 65.00944502897926 39.10589612097329 22.176770429868483 -13 -6 1
784 262 1 0.7 65.67520883691624 39.78381472619594 21.511349573016794 -13 -6 1
786 262 2 -0.35 66.34097264485321 40.4617333314186 20.845928716165105 -13 -6 1
674 225 2 -0.35 122.12319238126636 38.301332556907454 13.179706061658665 4 2 -5
673 225 1 0.7 122.84937243656613 39.188121909066325 13.358219848741987 4 2 -5
675 225 2 -0.35 123.57555249186589 40.074911261225196 13.53673363582531 4 2 -5
844 282 1 0.7 99.22285740693947 37.674577560397836 21.819288157195125 -3 -3 -8
846 282 2 -0.35 100.1063314073901 37.25260144280389 22.441389311919608 -3 -3 -8
845 282 2 -0.35 98.33938340648884 38.09655367799177 21.19718700247064 -3 -3 -8
669 223 2 -0.35 137.02967524544644 29.638401560028772 16.651930248441385 3 -2 -11
667 223 1 0.7 136.65513544327908 30.701774259462937 16.924984160133683 3 -2 -11
668 223 2 -0.35 136.28059564111172 31.765146958897102 17.198038071825977 3 -2 -11
94 32 1 0.7 136.42952735211978 39.70850391010229 24.504189084077133 2 4 0
96 32 2 -0.35 137.370062735985 40.090946748255284 23.943180468063 2 4 0
1395 465 2 -0.35 152.52892380666358 28.06985878609731 9.660780207569571 -5 1 5
1393 465 1 0.7 152.88197027354832 29.17121213062512 9.571454943972524 -5 1 5
1394 465 2 -0.35 153.23501674043303 30.27256547515293 9.482129680375477 -5 1 5
1200 400 2 -0.35 163.05337052748126 39.536811365124656 20.732715950436738 0 -1 -4
1198 400 1 0.7 163.87756778669683 39.734775834461416 21.52461805725557 0 -1 -4
1199 400 2 -0.35 164.7017650459124 39.93274030379818 22.316520164074404 0 -1 -4
1331 444 2 -0.35 190.9865349777695 32.75162666594368 20.17395441777172 3 5 12
1330 444 1 0.7 190.88855716508928 31.950346998150472 19.34091705834254 3 5 12
1332 444 2 -0.35 190.79057935240905 31.149067330357262 18.507879698913356 3 5 12
1221 407 2 -0.35 18.58048304785591 61.0958326908939 14.791351070823572 -1 2 -7
1220 407 2 -0.35 19.93819387107912 59.37834405715962 15.558979961301599 -1 2 -7
1219 407 1 0.7 19.259338459467514 60.23708837402676 15.175165516062586 -1 2 -7
565 189 1 0.7 8.380234543208381 57.319373551165825 14.687697930535567 14 -1 0
566 189 2 -0.35 8.427249849782141 57.220750065464074 15.842541196531277 14 -1 0
567 189 2 -0.35 8.333219236634621 57.417997036867575 13.532854664539856 14 -1 0
1024 342 1 0.7 27.966606840853213 56.89432937706657 9.361392848727618 -3 -4 -2
1025 342 2 -0.35 28.317002881242175 55.86261042757309 9.7593609682262 -3 -4 -2
1026 342 2 -0.35 27.616210800464252 57.92604832656005 8.963424729229036 -3 -4 -2
17 6 2 -0.35 111.99122766084673 53.93535995837199 1.0380917790935391 4 -2 0
16 6 1 0.7 111.26415245828076 53.04615547543278 1.2001937141019992 4 -2 0
18 6 2 -0.35 110.53707725571479 52.15695099249357 1.3622956491104592 4 -2 0
131 44 2 -0.35 167.75065569945545 68.70282151727871 21.016098249382214 -6 -1 5
130 44 1 0.7 167.2631096668141 69.42106527574293 20.246666790782182 -6 -1 5
132 44 2 -0.35 166.77556363417276 70.13930903420717 19.477235332182154 -6 -1 5
847 283 1 0.7 194.2840501205094 73.42169591866087 22.363912217461568 0 0 -3
849 283 2 -0.35 193.80859859019708 72.89669317460303 23.282562292873276 0 0 -3
848 283 2 -0.35 194.75950165082173 73.9466986627187 21.445262142049856 0 0 -3
588 196 2 -0.35 4.8821660466432135 87.04601091375703 8.248002851901246 -4 3 2
586 196 1 0.7 4.330387285006913 87.70202341437641 9.02953199226638 -4 3 2
587 196 2 -0.35 3.7786085233706137 88.35803591499581 9.811061132631513 -4 3 2
1172 391 2 -0.35 113.13977395048254 85.28308999486006 16.107919055516163 -1 4 -3
1173 391 2 -0.35 111.8658654419903 85.69357902239304 14.212910910343494 -1 4 -3
1171 391 1 0.7 112.50281969623641 85.48833450862655 15.16041498292983 -1 4 -3
289 97 1 0.7 259.59217106666887 83.5022403944704 17.801736397788293 3 5 -1
291 97 2 -0.35 259.71677907762734 84.51813327721923 17.25581104173059 3 5 -1
290 97 2 -0.35 259.46756305571034 82.48634751172158 18.347661753845998 3 5 -1
253 85 1 0.7 260.86593880359163 97.91427713135911 7.481552455169542 2 -3 4
254 85 2 -0.35 259.93941400730404 97.2619705434388 7.729842441310976 2 -3 4
114 38 2 -0.35 74.03034891515723 120.24746330072836 4.55134685298387 5 2 6
113 38 2 -0.35 73.34005641761463 118.72384298800466 2.9437158597246103 5 2 6
112 38 1 0.7 73.68520266638593 119.48565314436651 3.74753135635424 5 2 6
1062 354 2 -0.35 110.29011602982122 106.28904735195493 6.939706112747702 2 5 -3
1060 354 1 0.7 110.54838447581142 106.54067680611358 8.042239571472921 2 5 -3
1061 354 2 -0.35 110.80665292180161 106.79230626027223 9.144773030198138 2 5 -3
1367 456 2 -0.35 220.15743044856774 122.43839923254973 3.437294991477782 0 5 -7
1366 456 1 0.7 220.53743568938503 122.7490453322082 2.386250264685159 0 5 -7
1368 456 2 -0.35 220.91744093020233 123.05969143186667 1.3352055378925358 0 5 -7
255 85 2 -0.35 261.7924635998793 98.56658371927944 7.233262469028107 2 -3 4
991 331 1 0.7 257.7145143897092 119.19011786228533 2.606296678197129 14 1 0
993 331 2 -0.35 258.03583042268065 118.76006393727215 3.6346009272090094 14 1 0
992 331 2 -0.35 257.3931983567378 119.62017178729853 1.5779924291852494 14 1 0
1266 422 2 -0.35 19.741238565762718 136.2945123284143 5.0226013142834445 -5 -2 5
1264 422 1 0.7 18.797648137485126 135.62365143703744 4.950609869768234 -5 -2 5
1265 422 2 -0.35 17.854057709207535 134.9527905456606 4.878618425253024 -5 -2 5
437 146 2 -0.35 39.49917693068004 130.58042292272404 13.370535864014128 -1 7 -5
436 146 1 0.7 40.03125037450337 131.380881430592 12.721102243420779 -1 7 -5
438 146 2 -0.35 40.56332381832671 132.18133993846 12.07166862282743 -1 7 -5
1159 387 1 0.7 127.17458906536123 136.80013311980795 13.537424115771454 4 -4 -3
1160 387 2 -0.35 126.16026855751196 136.29049900452532 13.29862089992893 4 -4 -3
1161 387 2 -0.35 128.1889095732105 137.3097672350906 13.77622733161398 4 -4 -3
864 288 2 -0.35 160.83539206619707 125.88187123765898 13.50082519957117 -1 -2 1
862 288 1 0.7 160.52787413172672 126.07411573495027 14.602675812513654 -1 -2 1
863 288 2 -0.35 160.22035619725636 126.26636023224157 15.704526425456137 -1 -2 1
741 247 2 -0.35 31.500785416383742 157.64012463443433 20.075601381160187 3 0 -2
739 247 1 0.7 31.21132453648048 158.62680905019118 19.538697048240927 3 0 -2
740 247 2 -0.35 30.92186365657722 159.61349346594807 19.001792715321667 3 0 -2
1421 474 2 -0.35 65.74844087158323 160.06849294893402 16.95042754816545 1 1 7
1420 474 1 0.7 65.60749250228825 159.41515982300524 16.002329776963485 1 1 7
1422 474 2 -0.35 65.46654413299326 158.76182669707643 15.054232005761518 1 1 7
1337 446 2 -0.35 121.85559778995017 162.73811399679312 9.474279955089148 -1 4 -5
1336 446 1 0.7 121.13420379461212 162.62808452255078 10.375991781721359 -1 4 -5
1338 446 2 -0.35 120.41280979927407 162.51805504830844 11.277703608353567 -1 4 -5
966 322 2 -0.35 203.04813215573768 150.1787179185825 4.566866457333773 -2 3 1
965 322 2 -0.35 202.83943529955636 148.63683589232312 6.287751531738724 -2 3 1
964 322 1 0.7 202.943783727647 149.4077769054528 5.427308994536248 -2 3 1
889 297 1 0.7 82.92550072211398 188.86907965451928 24.44771572420256 -4 5 0
891 297 2 -0.35 83.09023529569563 189.551646400415 25.371060274012834 -4 5 0
890 297 2 -0.35 82.76076614853234 188.1865129086236 23.524371174392282 -4 5 0
118 40 1 0.7 114.26963831177734 192.19868501979323 2.5963405832108255 -1 1 3
120 40 2 -0.35 114.15354588570507 192.03379810314712 3.738678034810143 -1 1 3
119 40 2 -0.35 114.38573073784961 192.36357193643934 1.454003131611508 -1 1 3
924 308 2 -0.35 146.38633724758546 175.270043924751 24.44088903909613 6 3 -1
922 308 1 0.7 145.32093958675875 175.46167915302865 24.023991253557632 6 3 -1
923 308 2 -0.35 144.25554192593202 175.6533143813063 23.60709346801913 6 3 -1
1114 372 1 0.7 146.64627092981374 182.81097908463337 19.44475774761066 0 -3 0
1115 372 2 -0.35 146.46902105865382 182.6096163919101 20.57331237595299 0 -3 0
1116 372 2 -0.35 146.82352080097365 183.01234177735665 18.316203119268327 0 -3 0
915 305 2 -0.35 144.25536597647613 190.54151343226346 13.428401551149793 8 -2 2
913 305 1 0.7 145.03090912448116 190.35753630309827 14.271185771178725 8 -2 2
914 305 2 -0.35 145.80645227248618 190.17355917393306 15.113969991207659 8 -2 2
329 110 2 -0.35 144.89256135759175 194.34979288161568 20.439638082584928 -11 1 5
328 110 1 0.7 144.56622878312908 194.23670853709743 19.332245206560366 -11 1 5
330 110 2 -0.35 144.23989620866638 194.12362419257914 18.224852330535803 -11 1 5
614 205 2 -0.35 90.48039742356728 212.51371193871682 23.24489833607128 4 6 -6
615 205 2 -0.35 89.35655377836386 212.0490685152537 21.269175189939773 4 6 -6
613 205 1 0.7 89.91847560096558 212.28139022698525 22.257036763005527 4 6 -6
393 131 2 -0.35 33.671759677688215 228.76131058987193 11.619607574004998 4 2 6
391 131 1 0.7 34.632573538262285 229.04903058500759 12.202405935126713 4 2 6
392 131 2 -0.35 35.59338739883635 229.33675058014325 12.785204296248429 4 2 6
737 246 2 -0.35 36.391604556032696 226.80740522193412 22.67492817663276 2 -4 -9
736 246 1 0.7 35.319450255409784 227.00691412065513 23.070252543435693 2 -4 -9
738 246 2 -0.35 34.24729595478687 227.20642301937613 23.465576910238628 2 -4 -9
353 118 2 -0.35 127.54825391561457 227.5276338920081 20.869480724241864 3 6 0
354 118 2 -0.35 129.79862007959804 227.68713719912967 20.328360753246205 3 6 0
352 118 1 0.7 128.6734369976063 227.6073855455689 20.598920738744035 3 6 0
504 168 2 -0.35 225.69444625167517 244.9007429419628 13.698696994058432 -1 1 9
502 168 1 0.7 225.40465457239614 245.99767880845323 13.940259589317611 -1 1 9
302 101 2 -0.35 108.18861134147622 269.5693280625254 9.26231886052999 -1 -7 0
1144 382 1 0.7 184.4833543269977 262.6760047455666 17.776992687262872 2 0 1
1145 382 2 -0.35 184.54479754488847 263.74597371672314 18.220829517345482 2 0 1
1146 382 2 -0.35 184.42191110910696 261.60603577441003 17.333155857180266 2 0 1
503 168 2 -0.35 225.1148628931171 247.09461467494367 14.18182218457679 -1 1 9
679 227 1 0.7 267.3134728067298 253.2868350843066 1.998760874042081 -6 -5 9
681 227 2 -0.35 266.99971764528266 252.38126766378045 1.3452279020000741 -6 -5 9
680 227 2 -0.35 267.62722796817695 254.19240250483276 2.652293846084088 -6 -5 9
947 316 2 -0.35 88.03489991501817 9.182157929303894 38.01640296222376 4 1 9
946 316 1 0.7 87.18175513167094 8.40428274415538 37.903912184921666 4 1 9
948 316 2 -0.35 86.3286103483237 7.626407559006864 37.79142140761957 4 1 9
1016 339 2 -0.35 127.81088166288657 8.874386891451831 35.1056498570532 -3 0 10
1017 339 2 -0.35 126.44407174128865 7.5143743940977235 33.815457373253935 -3 0 10
1015 339 1 0.7 127.1274767020876 8.194380642774778 34.460553615153565 -3 0 10
755 252 2 -0.35 135.14637067155505 27.78661914191179 26.76476345044652 0 -4 -7
756 252 2 -0.35 137.34498770268178 27.046624808863488 26.79462207570436 0 -4 -7
754 252 1 0.7 136.2456791871184 27.41662197538764 26.77969276307544 0 -4 -7
95 32 2 -0.35 135.48899196825457 39.32606107194928 25.065197700091264 2 4 0
482 161 2 -0.35 121.28973233896878 52.76019769729225 48.461999967676576 -4 -3 1
1238 413 2 -0.35 129.8705328012472 66.94143534869701 33.46966003761361 -9 1 -7
1237 413 1 0.7 129.05865973648332 67.72907835608409 33.726721547033 -9 1 -7
1239 413 2 -0.35 128.24678667171943 68.51672136347115 33.983783056452395 -9 1 -7
1498 500 1 0.7 20.79242194324523 78.17463313115918 37.0398797277618 0 0 -5
1499 500 2 -0.35 21.875872639552536 78.4828192736376 37.316928261876505 0 0 -5
1500 500 2 -0.35 19.708971246937928 77.86644698868076 36.76283119364709 0 0 -5
1382 461 2 -0.35 27.238574038306954 118.71145025314853 44.790370428718276 -8 7 8
1383 461 2 -0.35 29.264162974837742 119.12260307116888 43.736642370614405 -8 7 8
1381 461 1 0.7 28.251368506572348 118.9170266621587 44.26350639966634 -8 7 8
826 276 1 0.7 76.14583356443877 111.9722391401609 32.08785330102092 -3 2 4
827 276 2 -0.35 75.41780786594741 111.67320887019947 32.94000321739907 -3 2 4
828 276 2 -0.35 76.87385926293013 112.2712694101223 31.235703384642775 -3 2 4
252 84 2 -0.35 93.15557869915581 120.04974632959646 46.735457792281004 -4 -1 -2
250 84 1 0.7 92.7550212849308 120.04173660292956 45.64683958455712 -4 -1 -2
251 84 2 -0.35 92.3544638707058 120.03372687626266 44.558221376833245 -4 -1 -2
1034 345 2 -0.35 143.74460381251336 103.81599887735382 47.045362949739236 4 -8 2
1035 345 2 -0.35 145.47986347636032 104.61689834498164 45.73013143332145 4 -8 2
1033 345 1 0.7 144.61223364443686 104.21644861116772 46.387747191530345 4 -8 2
67 23 1 0.7 175.04440717013756 122.61203816719903 44.880897536355526 4 -1 0
69 23 2 -0.35 174.60044864399114 121.96250396201573 44.02848557998849 4 -1 0
659 220 2 -0.35 154.41336600514273 139.39650238535364 29.847977269020124 0 8 -5
660 220 2 -0.35 156.32319043171998 139.546138517289 28.5393215894516 0 8 -5
658 220 1 0.7 155.36827821843136 139.47132045132133 29.19364942923586 0 8 -5
1134 378 2 -0.35 154.90495980135645 131.308446574316 32.50489892623512 3 5 2
1132 378 1 0.7 153.8344381880752 130.92169962626824 32.281269157026266 3 5 2
1133 378 2 -0.35 152.76391657479397 130.53495267822046 32.05763938781741 3 5 2
68 23 2 -0.35 175.48836569628398 123.26157237238233 45.733309492722555 4 -1 0
1471 491 1 0.7 24.68401522362044 171.86541485944517 30.437748903966884 -3 -6 8
1473 491 2 -0.35 23.722530028089658 171.79941774089647 29.792155689073137 -3 -6 8
1472 491 2 -0.35 25.645500419151226 171.93141197799386 31.08334211886063 -3 -6 8
813 271 2 -0.35 29.347957907456962 168.0923095443655 47.42603573463171 11 1 -7
812 271 2 -0.35 28.44525778162584 169.42830357837087 45.75790731513977 11 1 -7
811 271 1 0.7 28.8966078445414 168.7603065613682 46.591971524885736 11 1 -7
1310 437 2 -0.35 59.793455454261185 169.0967276031738 50.16889276581259 -3 4 -2
1311 437 2 -0.35 60.723927517065334 168.60447101627847 48.101453481819775 -3 4 -2
1309 437 1 0.7 60.258691485663256 168.85059930972614 49.13517312381618 -3 4 -2
283 95 1 0.7 97.9642775052491 158.55437528128238 38.942718554957736 -4 1 -6
285 95 2 -0.35 97.89947968359661 158.23086549013135 40.05480787571248 -4 1 -6
284 95 2 -0.35 98.02907532690159 158.8778850724334 37.830629234202995 -4 1 -6
25 9 1 0.7 117.16990210681969 158.36515632588356 47.23955897019504 7 -1 -10
26 9 2 -0.35 117.45962391399496 158.0938624049673 46.14957691395765 7 -1 -10
27 9 2 -0.35 116.88018029964442 158.63645024679985 48.32954102643242 7 -1 -10
1252 418 1 0.7 135.1033531073524 150.92918279588903 46.63452604460646 -2 1 -2
1253 418 2 -0.35 134.3987853319407 150.18198556223487 46.09519261909841 -2 1 -2
1254 418 2 -0.35 135.8079208827641 151.6763800295432 47.17385947011451 -2 1 -2
153 51 2 -0.35 198.28077899668244 150.12405430018188 35.55147729078368 -7 3 -2
151 51 1 0.7 198.57591039637165 150.04772508259958 34.43224929459192 -7 3 -2
152 51 2 -0.35 198.8710417960609 149.97139586501726 33.31302129840016 -7 3 -2
1100 367 2 -0.35 53.248709156211554 192.76863678298125 34.787774309251674 8 0 3
1099 367 1 0.7 52.102391464209624 192.59468857218644 34.75174974867335 8 0 3
1101 367 2 -0.35 50.956073772207695 192.42074036139164 34.71572518809502 8 0 3
1443 481 2 -0.35 74.61288140636407 188.71287974974172 48.51699461670059 1 5 -2
1441 481 1 0.7 74.22435376528163 189.34701610514074 47.62676017854529 1 5 -2
1442 481 2 -0.35 73.8358261241992 189.98115246053976 46.736525740389986 1 5 -2
422 141 2 -0.35 169.30289936816604 186.56722856573276 46.28469873520905 6 -1 11
423 141 2 -0.35 169.50847592857428 184.76358987865905 44.84004453288835 6 -1 11
421 141 1 0.7 169.40568764837016 185.6654092221959 45.5623716340487 6 -1 11
6 2 2 -0.35 189.22049748895648 189.43648883984937 32.986493364919724 -3 4 3
4 2 1 0.7 189.33949867825328 189.6092619036425 31.84562168704592 -3 4 3
5 2 2 -0.35 189.45849986755005 189.78203496743564 30.704750009172116 -3 4 3
430 144 1 0.7 3.9379895563754013 205.5902492313645 36.32728638291133 -1 0 0
432 144 2 -0.35 3.0832229634706247 204.89447856050495 35.96551678050386 -1 0 0
431 144 2 -0.35 4.792756149280178 206.28601990222407 36.689055985318795 -1 0 0
167 56 2 -0.35 147.63011671478313 208.1001903420089 44.68501782038128 -3 -2 0
221 74 2 -0.35 133.62474566987115 208.6501047172601 32.6863639583107 -12 0 -1
220 74 1 0.7 132.9445805647775 207.88936958952135 33.2379593673183 -12 0 -1
222 74 2 -0.35 132.26441545968387 207.1286344617826 33.789554776325886 -12 0 -1
166 56 1 0.7 148.5828688774294 207.96027353542996 44.03826701534755 -3 -2 0
168 56 2 -0.35 149.53562104007568 207.820356728851 43.39151621031382 -3 -2 0
578 193 2 -0.35 155.8002466397881 209.40456860590987 35.581650072327626 -2 10 -3
577 193 1 0.7 155.72345255924296 210.35482120294262 34.920800111272975 -2 10 -3
579 193 2 -0.35 155.64665847869782 211.30507379997536 34.25995015021832 -2 10 -3
1349 450 2 -0.35 193.05181784764775 205.46259727741884 43.25892009558895 6 -1 -2
1348 450 1 0.7 194.11314704974103 205.36745704708352 42.80052216654238 6 -1 -2
1350 450 2 -0.35 195.1744762518343 205.27231681674817 42.3421242374958 6 -1 -2
932 311 2 -0.35 221.48560331604577 198.28932766031937 45.25518547716418 -6 6 -3
931 311 1 0.7 222.584553614029 197.93696347041436 45.37243614980553 -6 6 -3
933 311 2 -0.35 223.68350391201224 197.58459928050934 45.489686822446885 -6 6 -3
1247 416 2 -0.35 237.9661430033979 219.95852438371634 34.581012829327705 -5 3 0
1246 416 1 0.7 238.02465372324565 220.05327615479655 35.73565502392395 -5 3 0
1248 416 2 -0.35 238.0831644430934 220.14802792587673 36.89029721852018 -5 3 0
1467 489 2 -0.35 231.99331792117854 208.9976667837937 47.09162129221163 1 -3 2
1466 489 2 -0.35 231.8662042790841 206.99712397763486 45.92368696070204 1 -3 2
1465 489 1 0.7 231.92976110013132 207.99739538071427 46.507654126456835 1 -3 2
282 94 2 -0.35 254.13375854690668 198.66966654054949 35.9329253934308 4 2 3
280 94 1 0.7 253.81262379644232 199.7071118145558 36.34057693026858 4 2 3
281 94 2 -0.35 253.49148904597797 200.7445570885621 36.748228467106365 4 2 3
357 119 2 -0.35 74.44607797368577 227.60305995381205 32.62318828512111 -1 -4 5
355 119 1 0.7 74.19851398975601 226.51274518279553 32.314115843836824 -1 -4 5
356 119 2 -0.35 73.95095000582624 225.422430411779 32.00504340255254 -1 -4 5
64 22 1 0.7 145.67285674387506 234.8316596788361 38.17369370451122 8 -2 2
66 22 2 -0.35 144.88398481187943 235.58198590521894 37.77332933433151 8 -2 2
65 22 2 -0.35 146.46172867587066 234.0813334524533 38.57405807469094 8 -2 2
1271 424 2 -0.35 146.22675395303048 228.26241107309687 25.872092182976072 7 7 4
1270 424 1 0.7 146.0993565608292 227.1677630332753 26.234191027734308 7 7 4
1272 424 2 -0.35 145.9719591686279 226.07311499345371 26.596289872492548 7 7 4
777 259 2 -0.35 79.40503469155679 265.9211762280984 31.20717978255114 -2 -6 3
775 259 1 0.7 78.68341127685511 266.7111213587061 30.759020951349452 -2 -6 3
776 259 2 -0.35 77.96178786215341 267.50106648931387 30.310862120147764 -2 -6 3
694 232 1 0.7 252.0075667548831 254.9490648084556 33.01031009620343 2 -3 -2
695 232 2 -0.35 253.0300839831677 254.46625549740688 33.26906420153051 2 -3 -2
696 232 2 -0.35 250.98504952659846 255.43187411950433 32.751555990876355 2 -3 -2
1098 366 2 -0.35 265.4156123744857 249.69719165223069 34.52971376691187 -3 -7 5
1097 366 2 -0.35 265.93921561717514 247.43737329155812 34.4914956951556 -3 -7 5
1096 366 1 0.7 265.6774139958304 248.5672824718944 34.51060473103373 -3 -7 5
687 229 2 -0.35 259.8445818626244 255.42826981475707 37.89478250764549 -8 -10 -7
685 229 1 0.7 258.7159798931402 255.35235567319654 37.637693733897414 -8 -10 -7
686 229 2 -0.35 257.587377923656 255.276441531636 37.380604960149334 -8 -10 -7
1081 361 1 0.7 0.09609472782954818 4.0954023817743135 56.264418106479184 -1 -1 6
1082 361 2 -0.35 0.6330161058598934 3.1225430090288366 55.93146154073115 -1 -1 6
1363 455 1 0.7 21.769753750453397 5.174755658985132 68.21138370932077 1 -4 2
1364 455 2 -0.35 20.688360089804974 5.385705613004794 67.84849547913547 1 -4 2
1365 455 2 -0.35 22.85114741110182 4.963805704965469 68.57427193950608 1 -4 2
962 321 2 -0.35 36.62462706653015 0.4073110304164427 60.04427341248094 -9 -10 -7
772 258 1 0.7 25.785992429526083 24.080361378025923 72.8658222568923 -9 -6 -2
774 258 2 -0.35 25.74921388983574 23.422294466784948 71.91125676445755 -9 -6 -2
1296 432 2 -0.35 103.88235396331552 19.44493105559043 55.661765055871946 -5 0 -2
1294 432 1 0.7 104.970813167214 19.060614758304975 55.54705871301752 -5 0 -2
1295 432 2 -0.35 106.05927237111247 18.67629846101952 55.432352370163095 -5 0 -2
803 268 2 -0.35 147.68432898377233 21.632235516232157 70.51522371535584 7 6 -15
802 268 1 0.7 148.18794476890167 21.899824834180368 69.50509149733328 7 6 -15
804 268 2 -0.35 148.69156055403104 22.167414152128575 68.4949592793107 7 6 -15
560 187 2 -0.35 240.07149674251585 6.909503795388608 58.2937860044438 -1 -7 -5
559 187 1 0.7 239.5134087395114 6.814032856221448 59.306220239677316 -1 -7 -5
561 187 2 -0.35 238.9553207365069 6.718561917054287 60.31865447491082 -1 -7 -5
1083 361 2 -0.35 269.5591733497992 5.068261754519791 56.59737467222721 -2 -1 6
773 258 2 -0.35 25.82277096921643 24.7384282892669 73.82038774932707 -9 -6 -2
469 157 1 0.7 93.65780735943264 26.450873572759374 70.56135159578822 12 3 0
471 157 2 -0.35 93.39019016866848 25.357909348326153 70.27955336421626 12 3 0
470 157 2 -0.35 93.92542455019681 27.54383779719259 70.84314982736021 12 3 0
896 299 2 -0.35 137.4113768707665 43.18534860629228 70.98913274224167 3 0 5
897 299 2 -0.35 136.68756349644576 45.308276972196225 71.58214990252256 3 0 5
895 299 1 0.7 137.04947018360613 44.24681278924425 71.2856413223821 3 0 5
888 296 2 -0.35 262.24509538890885 30.42345223595663 51.25692147164329 -2 7 6
886 296 1 0.7 262.2115130234978 29.264374902654307 51.288732792862824 -2 7 6
887 296 2 -0.35 262.1779306580868 28.105297569351983 51.32054411408235 -2 7 6
116 39 2 -0.35 48.22078979813162 57.18493951825131 58.29598311092968 8 -2 5
115 39 1 0.7 49.270280817514106 56.92162331649277 58.714113686381324 8 -2 5
117 39 2 -0.35 50.319771836896585 56.65830711473423 59.132244261832966 8 -2 5
75 25 2 -0.35 110.93897437075367 61.238614169232335 50.950348727405796 2 0 1
73 25 1 0.7 111.85310387785174 61.074734757449626 50.255287016013106 2 0 1
74 25 2 -0.35 112.76723338494979 60.91085534566692 49.560225304620424 2 0 1
483 161 2 -0.35 119.34975134391573 52.45023131603379 49.6960156002021 -4 -3 1
481 161 1 0.7 120.31974184144225 52.60521450666302 49.07900778393934 -4 -3 1
530 177 2 -0.35 221.7267718643866 73.3187005249494 57.68452424674503 3 9 5
529 177 1 0.7 222.31121698596166 72.78359510967283 56.837360688505186 3 9 5
531 177 2 -0.35 222.89566210753677 72.24848969439627 55.990197130265344 3 9 5
32 11 2 -0.35 241.21246014927948 57.049645105453365 53.967065785182214 8 0 -1
31 11 1 0.7 241.342852309086 57.64135960530734 54.95624313799753 8 0 -1
33 11 2 -0.35 241.47324446889252 58.23307410516132 55.94542049081285 8 0 -1
389 130 2 -0.35 242.4954507558287 64.23095338367524 61.59234778276998 -2 0 0
388 130 1 0.7 242.89623304157834 63.489743825148985 62.38958171944064 -2 0 0
390 130 2 -0.35 243.29701532732798 62.748534266622734 63.18681565611131 -2 0 0
331 111 1 0.7 67.46039330157838 79.72819726250576 49.54676964805216 2 -1 -3
333 111 2 -0.35 67.96489366506384 80.60170448088547 48.974000477548216 2 -1 -3
332 111 2 -0.35 66.95589293809293 78.85469004412606 50.1195388185561 2 -1 -3
1158 386 2 -0.35 82.57522921162298 95.15578471245749 49.13021981789877 6 2 -3
1157 386 2 -0.35 84.51378085314698 95.83953426395696 50.20581457614377 6 2 -3
1156 386 1 0.7 83.54450503238498 95.49765948820722 49.66801719702127 6 2 -3
267 89 2 -0.35 155.07982555927342 90.62053621097049 51.87340398518708 -5 -4 6
266 89 2 -0.35 154.2421990175402 92.72820689551503 51.38503316081994 -5 -4 6
265 89 1 0.7 154.6610122884068 91.67437155324275 51.629218573003506 -5 -4 6
455 152 2 -0.35 217.1167338720121 92.26188470450079 59.2412220978003 7 -2 4
454 152 1 0.7 217.190401721296 93.40204875899808 59.04072527285469 7 -2 4
456 152 2 -0.35 217.26406957057995 94.54221281349537 58.84022844790908 7 -2 4
843 281 2 -0.35 3.765077107778299 116.13672305992488 57.91435616096364 4 7 -1
841 281 1 0.7 3.3293269831278587 115.06192339182422 57.93732357964061 4 7 -1
842 281 2 -0.35 2.893576858477418 113.98712372372358 57.960290998317575 4 7 -1
1229 410 2 -0.35 85.55832198779103 109.10959676668368 52.34200092073069 0 -3 0
1228 410 1 0.7 86.63845126320113 108.7031511345841 52.22485700688679 0 -3 0
1230 410 2 -0.35 87.71858053861122 108.29670550248453 52.107713093042896 0 -3 0
912 304 2 -0.35 142.37098767381931 107.23965171322394 69.68756450375275 -5 -1 2
910 304 1 0.7 141.96716166772862 107.5262267363917 68.6385653079 -5 -1 2
911 304 2 -0.35 141.56333566163795 107.81280175955948 67.58956611204722 -5 -1 2
542 181 2 -0.35 200.3886905977125 112.54867226263511 50.80181027437728 2 0 9
543 181 2 -0.35 201.9576198077181 113.12563642209678 49.19309230882626 2 0 9
541 181 1 0.7 201.1731552027153 112.83715434236595 49.99745129160177 2 0 9
1085 362 2 -0.35 248.64422948760168 107.15755183056498 62.22404041609405 -3 8 0
1084 362 1 0.7 249.62207794521646 107.22759979048051 61.603955198359536 -3 8 0
1086 362 2 -0.35 250.59992640283124 107.29764775039604 60.98386998062503 -3 8 0
38 13 2 -0.35 32.57183485841949 147.47487743120556 59.11985875233848 1 0 3
37 13 1 0.7 32.5116160786431 146.65403967671023 59.93729320191678 1 0 3
39 13 2 -0.35 32.45139729886671 145.83320192221487 60.75472765149509 1 0 3
234 78 2 -0.35 156.5349389867245 136.56740652838204 68.07627082746683 -3 -6 1
232 78 1 0.7 155.4397600369864 136.2241013568007 68.24457004676755 -3 -6 1
233 78 2 -0.35 154.3445810872483 135.8807961852194 68.41286926606828 -3 -6 1
1269 423 2 -0.35 215.9657702868613 128.3499225536984 56.45376241342671 -7 -2 0
1267 423 1 0.7 215.7284521454961 129.2511597599885 57.144451632812654 -7 -2 0
1268 423 2 -0.35 215.4911340041309 130.1523969662786 57.83514085219859 -7 -2 0
62 21 2 -0.35 238.84423692909166 126.78242280598151 60.18718591771919 -1 3 -5
61 21 1 0.7 239.9862197150854 126.77453774719599 60.390688110191036 -1 3 -5
63 21 2 -0.35 241.1282025010792 126.76665268841046 60.59419030266289 -1 3 -5
1188 396 2 -0.35 245.69993291172156 138.21827444341787 73.23230512739933 4 5 -14
1141 381 1 0.7 1.3720388918010877 165.43817570008105 64.85566869801134 4 4 0
1143 381 2 -0.35 1.8621391743753581 164.43843873179912 65.18113406831934 4 4 0
1142 381 2 -0.35 0.8819386092268175 166.43791266836297 64.53020332770335 4 4 0
450 150 2 -0.35 32.0044647800076 185.47633402273777 60.89894674982349 3 -3 7
449 150 2 -0.35 32.20339081612115 184.26718200319854 62.86891624852042 3 -3 7
448 150 1 0.7 32.103927798064376 184.87175801296817 61.88393149917195 3 -3 7
1164 388 2 -0.35 74.06751094357608 186.77227720868456 53.42089873355848 -1 0 0
1163 388 2 -0.35 74.70884551311846 184.5577247913311 53.679447685803886 -1 0 0
1162 388 1 0.7 74.38817822834727 185.66500100000783 53.55017320968118 -1 0 0
177 59 2 -0.35 134.57912999707892 193.93727503213367 68.74603367100126 4 -7 3
175 59 1 0.7 135.72569694743117 193.84014613568988 68.59923378736929 4 -7 3
176 59 2 -0.35 136.87226389778343 193.74301723924606 68.4524339037373 4 -7 3
109 37 1 0.7 261.90752960072996 197.53761916626775 64.26611120379653 -4 13 5
110 37 2 -0.35 261.6070156274055 196.42876725787724 64.42654435838443 -4 13 5
1291 431 1 0.7 6.291069945961498 200.35401821250736 51.33102598989011 1 5 -5
1293 431 2 -0.35 5.134448456518207 200.44171873851673 51.34265990130822 1 5 -5
1292 431 2 -0.35 7.4476914354047885 200.26631768649798 51.319392078472006 1 5 -5
1066 356 1 0.7 29.526209358581298 211.59746319450684 68.4545494735585 3 -2 3
1067 356 2 -0.35 28.68674171036072 212.1505033269087 67.87572248771407 3 -2 3
1068 356 2 -0.35 30.365677006801874 211.044423062105 69.03337645940292 3 -2 3
972 324 2 -0.35 234.37734586663157 221.2471835651171 55.22731424091652 -1 10 -3
971 324 2 -0.35 232.52322542710354 221.46568824194622 56.604591664652254 -1 10 -3
970 324 1 0.7 233.45028564686754 221.35643590353166 55.91595295278439 -1 10 -3
111 37 2 -0.35 262.2080435740544 198.64647107465825 64.10567804920862 -4 13 5
879 293 2 -0.35 81.04354551044108 238.5551131344615 49.335620001130465 9 1 7
877 293 1 0.7 80.4193758588971 239.03949896625647 50.18496245977018 9 1 7
878 293 2 -0.35 79.79520620735312 239.52388479805145 51.034304918409894 9 1 7
477 159 2 -0.35 199.71898014607382 238.68984773641623 50.869611725025685 1 4 3