LAMMPS (29 Aug 2024 - Update 1)
  using 1 OpenMP thread(s) per MPI task
package gpu 1 gpuID 0
# GCMC for CO2 molecular fluid, rigid/small/nvt dynamics
# Rigid CO2 TraPPE model
# [Potoff and J.I. Siepmann, Vapor-liquid equilibria of
# mixtures containing alkanes, carbon dioxide and
# nitrogen AIChE J., 47,1676-1682 (2001)].

# global model settings

units           real
atom_style      full
boundary        p p p
pair_style      lj/cut/coul/long  12
pair_modify     mix arithmetic shift yes
kspace_style    pppm 1.0e-4
bond_style      harmonic
angle_style     harmonic
neigh_modify    one 4000

# box, start molecules on simple cubic lattice
region          mbox block 0 ${lbox} 0 ${lbox} 0 ${lbox} units box
region          mbox block 0 270 0 ${lbox} 0 ${lbox} units box
region          mbox block 0 270 0 270 0 ${lbox} units box
region          mbox block 0 270 0 270 0 270 units box
create_box      2 mbox                                       bond/types 1                                angle/types 1                               extra/bond/per/atom 2                       extra/angle/per/atom 1                      extra/special/per/atom 2
Created orthogonal box = (0 0 0) to (270 270 270)
  1 by 1 by 1 MPI processor grid
molecule        co2mol ../CO2.txt
Read molecule template co2mol:
# CO2 molecule file. TraPPE model.
  1 molecules
  0 fragments
  3 atoms with max type 2
  2 bonds with max type 1
  1 angles with max type 1
  0 dihedrals with max type 0
  0 impropers with max type 0
create_atoms   	0 random ${nmols} 34578 mbox mol co2mol 464563 overlap 1.2
create_atoms   	0 random 500 34578 mbox mol co2mol 464563 overlap 1.2
Created 1500 atoms
  using lattice units in orthogonal box = (0 0 0) to (270 270 270)
  create_atoms CPU = 0.023 seconds

# rigid CO2 TraPPE model

pair_coeff      1   1  0.053649   2.800
pair_coeff      2   2  0.156973   3.050
bond_coeff      1       0       1.16
angle_coeff     1       0       180

# masses

mass 1 12.0107
mass 2 15.9994

write_data init_conf.data  pair ij
System init for write_data ...
PPPM initialization ...
  using 12-bit tables for long-range coulomb (src/kspace.cpp:342)
  G vector (1/distance) = 0.13680404
  grid = 40 40 40
  stencil order = 5
  estimated absolute RMS force accuracy = 0.039167481
  estimated relative force accuracy = 0.00011795171
  using double precision FFTW3
  3d grid and FFT values/proc = 91125 64000
Generated 1 of 1 mixed pair_coeff terms from arithmetic mixing rule

# MD settings

group           co2 type 1 2
1500 atoms in group co2
velocity       	all create 300 54654
timestep        0.25

# rigid constraints with thermostat
fix             myrigidnvt co2 rigid/nvt molecule temp 300 300 $(100*dt)
fix             myrigidnvt co2 rigid/nvt molecule temp 300 300 25
  500 rigid bodies with 1500 atoms

thermo 1000
thermo_style custom step temp density press ke pe etotal


variable    mvol equal vol
variable    mden equal density
variable	mtmp equal temp
variable    mpre equal press

fix mydat all ave/time 1 4000 4000 v_mtmp v_mden v_mpre file statistics.dat ## every 1ps

run 4000000 ## 1ns

CITE-CITE-CITE-CITE-CITE-CITE-CITE-CITE-CITE-CITE-CITE-CITE-CITE

Your simulation uses code contributions which should be cited:

- GPU package (short-range, long-range and three-body potentials): doi:10.1016/j.cpc.2010.12.021, doi:10.1016/j.cpc.2011.10.012, doi:10.1016/j.cpc.2013.08.002, doi:10.1016/j.commatsci.2014.10.068, doi:10.1016/j.cpc.2016.10.020, doi:10.3233/APC200086

@Article{Brown11,
 author = {W. M. Brown and P. Wang and S. J. Plimpton and A. N. Tharrington},
 title = {Implementing Molecular Dynamics on Hybrid High Performance Computers---Short Range Forces},
 journal = {Comput.\ Phys.\ Commun.},
 year =    2011,
 volume =  182,
 pages =   {898--911},
 doi =     {10.1016/j.cpc.2010.12.021}
}

@Article{Brown12,
 author = {W. M. Brown and A. Kohlmeyer and S. J. Plimpton and A. N. Tharrington},
 title = {Implementing Molecular Dynamics on Hybrid High Performance Computers - Particle-Particle Particle-Mesh},
 journal = {Comput.\ Phys.\ Commun.},
 year =    2012,
 volume =  183,
 doi =     {10.1016/j.cpc.2011.10.012},
 pages =   {449--459}
}

@Article{Brown13,
 author = {W. M. Brown and Y. Masako},
 title = {Implementing Molecular Dynamics on Hybrid High Performance Computers---Three-Body Potentials},
 journal = {Comput.\ Phys.\ Commun.},
 year =    2013,
 volume =  184,
 pages =   {2785--2793},
 doi =     {10.1016/j.cpc.2013.08.002},
}

@Article{Trung15,
 author = {T. D. Nguyen and S. J. Plimpton},
 title = {Accelerating Dissipative Particle Dynamics Simulations for Soft Matter Systems},
 journal = {Comput.\ Mater.\ Sci.},
 year =    2015,
 doi =     {10.1016/j.commatsci.2014.10.068},
 volume =  100,
 pages =   {173--180}
}

@Article{Trung17,
 author = {T. D. Nguyen},
 title = {{GPU}-Accelerated {T}ersoff Potentials for Massively Parallel
    Molecular Dynamics Simulations},
 journal = {Comput.\ Phys.\ Commun.},
 year =    2017,
 doi =     {10.1016/j.cpc.2016.10.020},
 volume =  212,
 pages =   {113--122}
}

@inproceedings{Nikolskiy19,
 author = {V. Nikolskiy and V. Stegailov},
 title = {{GPU} Acceleration of Four-Site Water Models in {LAMMPS}},
 booktitle = {Proceedings of the International Conference on Parallel
    Computing (ParCo 2019), Prague, Czech Republic},
 doi =     {10.3233/APC200086},
 year =    2019
}

CITE-CITE-CITE-CITE-CITE-CITE-CITE-CITE-CITE-CITE-CITE-CITE-CITE

PPPM initialization ...
  using 12-bit tables for long-range coulomb (src/kspace.cpp:342)
  G vector (1/distance) = 0.13680404
  grid = 40 40 40
  stencil order = 5
  estimated absolute RMS force accuracy = 0.039167481
  estimated relative force accuracy = 0.00011795171
  using double precision FFTW3
  3d grid and FFT values/proc = 91125 64000
Generated 1 of 1 mixed pair_coeff terms from arithmetic mixing rule
Per MPI rank memory allocation (min/avg/max) = 16.3 | 16.3 | 16.3 Mbytes
   Step          Temp         Density         Press          KinEng         PotEng         TotEng    
         0   306.91746      0.0018564113   11.453635      761.47069      8.5047133      769.9754     
      1000   304.54747      0.0018564113  -1.6425353      755.59067     -1.7022322      753.88844    
      2000   297.2433       0.0018564113   0.9367218      737.46881     -0.94332274     736.52549    
      3000   296.94745      0.0018564113   1.9640268      736.73482     -0.97296276     735.76185    
      4000   323.02856      0.0018564113  -0.16131667     801.44275     -0.82785443     800.6149     
      5000   292.54229      0.0018564113  -0.53262431     725.80548     -1.447302       724.35817    
      6000   295.92867      0.0018564113   1.0742144      734.20718     -2.1833868      732.02379    
      7000   301.08749      0.0018564113   3.0408879      747.00636     -3.9118421      743.09452    
      8000   321.91659      0.0018564113   2.3392284      798.68394     -3.4942324      795.18971    
      9000   304.89659      0.0018564113  -0.95233588     756.45685     -2.2587048      754.19814    
     10000   293.37454      0.0018564113   0.85940322     727.87033     -3.677413       724.19292    
     11000   297.14471      0.0018564113   3.3283929      737.22423     -2.3595177      734.86471    
     12000   309.02948      0.0018564113   0.68256523     766.71066     -2.3516733      764.35898    
     13000   292.44905      0.0018564113   0.95081073     725.57415     -2.5959694      722.97818    
     14000   297.2548       0.0018564113   1.3536273      737.49736     -0.68251863     736.81484    
     15000   305.26913      0.0018564113   1.4229803      757.38112     -1.9815836      755.39954    
     16000   301.23455      0.0018564113  -0.036461901    747.37123     -3.5206117      743.85062    
     17000   289.24037      0.0018564113   0.62745245     717.61333     -2.8336524      714.77968    
     18000   299.09277      0.0018564113   1.2777541      742.05742     -3.2476412      738.80978    
     19000   310.63969      0.0018564113   1.2024596      770.70563     -3.9776065      766.72802    
     20000   305.75754      0.0018564113   0.6237155      758.59289     -4.2936896      754.2992     
     21000   303.1558       0.0018564113   1.0155472      752.1379      -3.1273617      749.01054    
     22000   295.18012      0.0018564113   1.1564494      732.35        -4.3890217      727.96098    
     23000   301.85045      0.0018564113   1.054324       748.89928     -6.0738681      742.82541    
     24000   305.00387      0.0018564113   0.75154631     756.72301     -3.7808647      752.94214    
     25000   301.2904       0.0018564113   0.78448184     747.50979     -2.1787438      745.33104    
     26000   280.81999      0.0018564113   1.1215254      696.72213     -1.9623852      694.75975    
     27000   295.19661      0.0018564113   1.5555853      732.39093     -1.8159205      730.57501    
     28000   299.8924       0.0018564113   1.3866972      744.0413      -4.0611105      739.98019    
     29000   308.58863      0.0018564113   0.14167989     765.61689     -3.3266207      762.29027    
     30000   296.9034       0.0018564113   1.0352655      736.62551     -2.43312        734.19239    
     31000   300.14819      0.0018564113   1.0321171      744.67594     -3.6964826      740.97945    
     32000   307.65055      0.0018564113   1.1158394      763.2895      -3.1037505      760.18575    
     33000   308.23739      0.0018564113   0.63231196     764.74546     -3.82015        760.92531    
     34000   308.69805      0.0018564113   1.0131031      765.88837     -6.4520601      759.43631    
     35000   297.65262      0.0018564113   0.99193261     738.48435     -4.7584259      733.72593    
     36000   293.3107       0.0018564113   0.87496229     727.71192     -4.4268346      723.28509    
     37000   291.52524      0.0018564113   1.1749798      723.28215     -4.6812969      718.60086    
     38000   294.92587      0.0018564113   1.2117299      731.71921     -4.1276625      727.59155    
     39000   289.97404      0.0018564113   1.3029917      719.4336      -2.5231504      716.91045    
     40000   290.49114      0.0018564113   0.81731604     720.71652     -2.8975661      717.81896    
     41000   313.4496       0.0018564113   0.9440542      777.67709     -3.0387663      774.63832    
     42000   311.28548      0.0018564113   1.1539624      772.30785     -1.0188318      771.28902    
     43000   295.46924      0.0018564113   1.0417529      733.06733     -1.6147716      731.45255    
     44000   276.49153      0.0018564113   0.43940158     685.98311     -0.96814001     685.01497    
     45000   300.22426      0.0018564113   0.43088234     744.86468     -2.787954       742.07672    
     46000   315.16552      0.0018564113   1.008398       781.93435     -3.6812353      778.25311    
     47000   298.51898      0.0018564113   1.5064931      740.63381     -3.0943155      737.5395     
     48000   299.57203      0.0018564113   1.056076       743.24646     -2.2229376      741.02352    
     49000   283.58515      0.0018564113   0.50803753     703.58256     -2.9079977      700.67457    
     50000   311.38659      0.0018564113   1.2663737      772.55871     -2.0720047      770.48671    
     51000   301.79737      0.0018564113   2.5389972      748.7676      -1.3877343      747.37986    
     52000   300.13912      0.0018564113   0.9006263      744.65342     -1.1253109      743.52811    
     53000   292.6839       0.0018564113   0.86224144     726.15682     -1.17062        724.9862     
     54000   312.20621      0.0018564113   1.3151157      774.5922      -2.5892193      772.00298    
     55000   302.59791      0.0018564113   1.2872355      750.75375     -2.6211583      748.13259    
     56000   295.76348      0.0018564113   0.076533285    733.79736     -3.7860681      730.01129    
     57000   303.95893      0.0018564113   1.144278       754.13048     -3.891408       750.23907    
     58000   307.57207      0.0018564113   1.9191645      763.09479     -1.4214262      761.67336    
     59000   300.59513      0.0018564113   1.424642       745.78481     -3.7016854      742.08312    
     60000   294.47993      0.0018564113   0.35651824     730.61282     -3.0726866      727.54013    
     61000   301.60285      0.0018564113   0.38387352     748.28497     -3.5126613      744.77231    
     62000   306.15418      0.0018564113   2.0783368      759.57695     -4.9734816      754.60347    
     63000   306.16501      0.0018564113   2.6595485      759.60384     -5.6856336      753.9182     
     64000   289.02057      0.0018564113   1.2873236      717.06801     -3.2028004      713.86521    
     65000   297.40219      0.0018564113   0.64379312     737.86302     -3.2255027      734.63752    
     66000   308.60656      0.0018564113   0.35653575     765.66139     -2.6600987      763.00129    
     67000   309.01294      0.0018564113   1.0659921      766.66962     -1.0257345      765.64389    
     68000   281.70736      0.0018564113   1.3160137      698.92372     -1.68664        697.23708    
     69000   304.77059      0.0018564113   0.67529276     756.14424     -2.0122905      754.13195    
     70000   322.40875      0.0018564113   1.2155982      799.90499     -1.0327712      798.87222    
     71000   298.79214      0.0018564113   0.99915219     741.31154     -3.0364844      738.27505    
     72000   290.56638      0.0018564113   0.87049941     720.90319     -2.8185965      718.08459    
     73000   308.91737      0.0018564113   1.0809239      766.43252     -3.0485546      763.38397    
     74000   301.33568      0.0018564113   0.92772824     747.62212     -4.3703858      743.25173    
     75000   289.69083      0.0018564113   0.8661559      718.73093     -3.8158824      714.91505    
     76000   293.87611      0.0018564113   1.2737647      729.11474     -4.5861295      724.52861    
     77000   306.15998      0.0018564113   1.541046       759.59134     -4.0748547      755.51649    
     78000   312.97873      0.0018564113   1.0123269      776.50887     -3.3258123      773.18306    
     79000   295.73042      0.0018564113   1.5068936      733.71534     -2.8656389      730.8497     
     80000   309.28172      0.0018564113   0.81251611     767.33646     -3.4084304      763.92803    
     81000   297.70021      0.0018564113   0.93075519     738.60244     -3.0256027      735.57683    
     82000   296.97502      0.0018564113   0.98883417     736.80321     -5.5465889      731.25662    
     83000   305.73551      0.0018564113   2.689418       758.53824     -3.1914123      755.34683    
     84000   308.45608      0.0018564113   1.1592397      765.28804     -3.4298983      761.85814    
     85000   296.81399      0.0018564113   0.37579662     736.4037      -3.9119293      732.49177    
     86000   302.81722      0.0018564113   0.86954178     751.29786     -2.2848114      749.01305    
     87000   303.67709      0.0018564113   1.4121172      753.43123     -2.7659631      750.66527    
     88000   291.39233      0.0018564113   1.0863855      722.9524      -0.86340886     722.08899    
     89000   296.25102      0.0018564113   0.50898049     735.00695     -3.8892168      731.11774    
     90000   300.4612       0.0018564113   1.1068593      745.45252     -1.8137619      743.63876    
     91000   308.80279      0.0018564113   0.95594795     766.14824     -2.0791523      764.06909    
     92000   298.18164      0.0018564113   0.8768433      739.79688     -2.9931222      736.80375    
     93000   285.7154       0.0018564113   0.98297522     708.86778     -2.9475131      705.92026    
     94000   307.61616      0.0018564113   1.4192175      763.20417     -1.7953039      761.40886    
     95000   315.31938      0.0018564113   1.0572261      782.31609     -1.2581477      781.05794    
     96000   310.373        0.0018564113   1.065953       770.04397     -2.4360983      767.60787    
     97000   292.93953      0.0018564113   0.72028256     726.79105     -2.5185439      724.2725     
     98000   296.2163       0.0018564113   1.3142893      734.92079     -4.08103        730.83976    
     99000   304.98534      0.0018564113   1.4076433      756.67704     -4.9510801      751.72596    
    100000   311.51914      0.0018564113   1.5439071      772.88757     -4.7982607      768.08931    
    101000   301.45535      0.0018564113   0.65404707     747.91903     -4.4866818      743.43235    
    102000   300.75422      0.0018564113   0.97166242     746.1795      -2.8929704      743.28653    
    103000   310.07112      0.0018564113   1.0650599      769.29499     -2.4217004      766.87329    
    104000   299.50975      0.0018564113   0.92305641     743.09195     -4.3953784      738.69657    
    105000   298.54102      0.0018564113   0.88645317     740.68851     -3.0300579      737.65845    
    106000   295.80862      0.0018564113   0.85060343     733.90934     -2.8455392      731.0638     
    107000   299.02204      0.0018564113   0.82864009     741.88192     -4.4745969      737.40732    
    108000   304.78324      0.0018564113   1.1349437      756.17562     -6.258364       749.91725    
    109000   297.401        0.0018564113   0.96836132     737.86007     -6.7813607      731.07871    
    110000   296.48313      0.0018564113   0.8741382      735.58281     -6.9647986      728.61801    
    111000   301.14704      0.0018564113   0.90810766     747.1541      -3.7030201      743.45108    
    112000   308.52419      0.0018564113   1.273694       765.45702     -3.0040043      762.45301    
    113000   303.66265      0.0018564113   1.5181219      753.39539     -2.4086727      750.98672    
    114000   298.30601      0.0018564113   0.78906371     740.10544     -3.3456978      736.75974    
    115000   295.12215      0.0018564113   0.88386783     732.20618     -3.7648         728.44138    
    116000   307.37487      0.0018564113   1.0475242      762.60552     -2.6607384      759.94478    
    117000   311.88171      0.0018564113   1.0889547      773.78713     -3.1175068      770.66962    
    118000   282.5549       0.0018564113   0.96427665     701.02649     -3.3382591      697.68823    
    119000   308.85627      0.0018564113   0.84808632     766.28092     -4.1382638      762.14266    
    120000   303.293        0.0018564113   1.2495644      752.4783      -4.3796215      748.09868    
    121000   300.08676      0.0018564113   1.7419345      744.52353     -6.0766914      738.44684    
    122000   284.20237      0.0018564113   1.5093374      705.11391     -4.6987963      700.41511    
    123000   289.00008      0.0018564113  -0.81636967     717.01715     -4.9817729      712.03538    
    124000   314.51446      0.0018564113   1.2347943      780.31904     -4.7393105      775.57973    
    125000   300.77268      0.0018564113   1.2618153      746.22531     -3.3509392      742.87437    
    126000   291.25464      0.0018564113   0.35133717     722.6108      -2.6365601      719.97424    
    127000   306.77593      0.0018564113   1.1761798      761.11955     -1.3155704      759.80398    
    128000   300.91756      0.0018564113   1.3598439      746.58477     -1.101957       745.48281    
    129000   305.53372      0.0018564113   1.0548668      758.03759     -3.4577744      754.57982    
    130000   298.18002      0.0018564113   0.51400009     739.79285     -3.9729878      735.81986    
    131000   295.00784      0.0018564113   1.2722213      731.92257     -4.1391307      727.78344    
    132000   298.20412      0.0018564113   2.2088821      739.85263     -0.67357376     739.17906    
    133000   290.48781      0.0018564113  -2.1516738      720.70825     -4.4970425      716.21121    
    134000   317.08623      0.0018564113  -1.9516736      786.69967     -4.6513862      782.04829    
    135000   294.94413      0.0018564113   2.9716461      731.76453     -5.0160991      726.74843    
    136000   291.72164      0.0018564113  -0.86543527     723.76944     -4.6395085      719.12993    
    137000   304.07208      0.0018564113  -0.46275313     754.41121     -3.1850557      751.22615    
    138000   302.74713      0.0018564113   3.7892537      751.12398     -4.077837       747.04615    
    139000   304.81728      0.0018564113   1.2588058      756.26007     -4.4060322      751.85404    
    140000   304.93112      0.0018564113   0.36257376     756.54252     -2.4226063      754.11991    
    141000   301.61427      0.0018564113   1.115326       748.31331     -2.9109276      745.40239    
    142000   295.06133      0.0018564113   2.2321669      732.05528     -3.5765004      728.47878    
    143000   300.14665      0.0018564113   0.92540502     744.6721      -5.0050687      739.66704    
    144000   299.4374       0.0018564113  -1.1519527      742.91244     -3.9337722      738.97867    
    145000   301.3941       0.0018564113   0.28396002     747.76706     -3.0391758      744.72788    
    146000   293.35585      0.0018564113   2.8815913      727.82394     -2.0545814      725.76936    
    147000   304.47388      0.0018564113   3.1105956      755.40809     -1.8877826      753.52031    
    148000   286.85692      0.0018564113  -0.88652337     711.69993     -2.7180351      708.9819     
    149000   300.40597      0.0018564113   0.063555476    745.3155      -1.3310347      743.98446    
    150000   315.95415      0.0018564113   1.5049344      783.89095     -2.7377499      781.1532     
    151000   293.20434      0.0018564113   3.7919367      727.44805     -1.0720695      726.37598    
    152000   291.12181      0.0018564113   2.4215276      722.28124     -3.5746993      718.70654    
    153000   297.53297      0.0018564113   1.0500764      738.1875      -3.3073363      734.88017    
    154000   314.4899       0.0018564113  -0.63448964     780.25812     -4.0369565      776.22116    
    155000   316.28537      0.0018564113   1.1890064      784.71271     -2.7049549      782.00776    
    156000   310.0635       0.0018564113   2.4098651      769.27609     -1.6435317      767.63256    
    157000   284.74816      0.0018564113   1.6465169      706.46804     -1.7108088      704.75723    
    158000   308.8348       0.0018564113   0.53632515     766.22764     -1.0490038      765.17864    
    159000   304.13244      0.0018564113   0.31548744     754.56097     -0.85359232     753.70738    
    160000   303.52581      0.0018564113   1.0369924      753.05591     -1.7051231      751.35079    
    161000   294.52442      0.0018564113   2.7464809      730.72321     -1.5163676      729.20685    
    162000   299.15725      0.0018564113   0.26917257     742.21739     -3.0856209      739.13177    
    163000   320.35444      0.0018564113   1.5553404      794.80821     -4.0347564      790.77345    
    164000   310.3554       0.0018564113   2.2502233      770.00029     -3.2408024      766.75949    
    165000   294.28487      0.0018564113   1.1137189      730.12888     -2.9735082      727.15537    
    166000   298.80188      0.0018564113   0.1805003      741.33571     -2.8023633      738.53335    
    167000   308.31134      0.0018564113   1.4505466      764.92892     -3.836927       761.092      
    168000   304.86665      0.0018564113   2.8605844      756.38257     -3.2741174      753.10845    
    169000   290.26901      0.0018564113   2.1895637      720.16542     -4.2373099      715.92811    
    170000   296.16895      0.0018564113   0.60792267     734.80332     -3.4317541      731.37156    
    171000   302.80629      0.0018564113  -0.8072629      751.27076     -4.3849336      746.88583    
    172000   307.84157      0.0018564113   1.538469       763.76343     -4.3277075      759.43572    
    173000   294.15767      0.0018564113   1.910242       729.81328     -4.7800949      725.03318    
    174000   297.64225      0.0018564113   0.7469185      738.45863     -3.6257141      734.83291    
    175000   302.7903       0.0018564113  -0.069883906    751.23108     -3.7261236      747.50495    
    176000   310.27156      0.0018564113   0.6314881      769.7923      -3.7991831      765.99311    
    177000   305.96717      0.0018564113   3.2368625      759.11299     -3.863834       755.24916    
    178000   291.31698      0.0018564113   2.1802166      722.76545     -4.1384216      718.62703    
    179000   302.49679      0.0018564113   0.64014154     750.50288     -2.8918766      747.61101    
    180000   307.67608      0.0018564113   0.71032785     763.35285     -4.2866948      759.06615    
    181000   298.03293      0.0018564113   1.3233065      739.42792     -2.0279264      737.39999    
    182000   292.71312      0.0018564113   1.2633051      726.22932     -0.15157035     726.07775    
    183000   300.0312       0.0018564113   0.32903451     744.38568     -0.58034217     743.80534    
    184000   306.43319      0.0018564113   0.96593744     760.2692      -2.3660138      757.90318    
    185000   295.11605      0.0018564113   1.0526114      732.19105     -1.842813       730.34824    
    186000   295.25877      0.0018564113   0.97453988     732.54515     -2.3302754      730.21487    
    187000   294.34033      0.0018564113   0.82906041     730.26648     -4.2700541      725.99643    
    188000   297.76264      0.0018564113   0.91851993     738.75731     -2.9955503      735.76176    
    189000   297.54991      0.0018564113   1.0387868      738.22953     -2.6020084      735.62752    
    190000   302.00002      0.0018564113   1.2475469      749.27038     -0.90709495     748.36328    
    191000   303.10529      0.0018564113   1.9686898      752.01258     -2.6493197      749.36327    
    192000   299.12935      0.0018564113   0.84975061     742.14816     -2.8738137      739.27434    
    193000   297.92158      0.0018564113   0.66758066     739.15166     -1.7095753      737.44209    
    194000   307.19713      0.0018564113   1.6191835      762.16455     -2.0194416      760.14511    
    195000   302.40179      0.0018564113   2.7956116      750.26719     -4.5356971      745.73149    
    196000   299.9311       0.0018564113   1.5978673      744.13733     -5.2007428      738.93659    
    197000   308.93878      0.0018564113  -0.48932989     766.48562     -5.4316982      761.05392    
    198000   296.31288      0.0018564113   2.3854172      735.16042     -5.8260808      729.33434    
    199000   299.97191      0.0018564113   1.5683697      744.23859     -3.2027402      741.03585    
    200000   298.67843      0.0018564113   0.20426574     741.02943     -3.0041302      738.0253     
    201000   302.48178      0.0018564113   1.3399552      750.46563     -2.1116325      748.354      
    202000   305.14657      0.0018564113   1.3173914      757.07705     -2.2886329      754.78842    
    203000   325.39616      0.0018564113   2.324321       807.31683     -2.8276324      804.4892     
    204000   288.2918       0.0018564113   1.9431841      715.2599      -1.9814472      713.27845    
    205000   290.86021      0.0018564113   0.66639419     721.6322      -2.4294289      719.20277    
    206000   321.60116      0.0018564113   0.92403695     797.90135     -2.2445832      795.65677    
    207000   298.39694      0.0018564113   2.1310985      740.33104     -1.3017882      739.02925    
    208000   280.8897       0.0018564113   1.7043653      696.8951      -1.6981411      695.19696    
    209000   299.5931       0.0018564113  -1.2760821      743.29873     -0.83163123     742.4671     
    210000   311.61216      0.0018564113   1.8323282      773.11835     -1.3183515      771.8        
    211000   292.73333      0.0018564113   2.0707284      726.27946     -2.2355357      724.04392    
    212000   301.25558      0.0018564113   0.52529195     747.4234      -1.714201       745.7092     
    213000   312.12342      0.0018564113  -0.38648066     774.38682     -1.7228707      772.66395    
    214000   309.67584      0.0018564113   1.8338334      768.31429     -1.2049228      767.10936    
    215000   294.05982      0.0018564113   1.8816987      729.57053     -0.92175196     728.64877    
    216000   298.52694      0.0018564113  -3.9052938      740.65356     -1.1264341      739.52712    
    217000   301.79456      0.0018564113   2.8413926      748.76063     -0.6603513      748.10028    
    218000   301.7716       0.0018564113   2.634537       748.70366     -2.2791856      746.42447    
    219000   300.51382      0.0018564113   2.5215084      745.58307     -0.48271367     745.10035    
    220000   292.02716      0.0018564113  -0.90979772     724.52743     -1.3773435      723.15008    
    221000   302.43559      0.0018564113  -1.8457407      750.35103     -0.65419893     749.69683    
    222000   297.53297      0.0018564113   1.5893017      738.18749     -1.6953727      736.49212    
    223000   298.7749       0.0018564113   2.4475376      741.26876     -0.45032143     740.81844    
    224000   300.85391      0.0018564113  -0.24339717     746.42684     -1.0836491      745.34319    
    225000   300.01938      0.0018564113   0.86541888     744.35635     -1.9495917      742.40676    
    226000   283.59439      0.0018564113   3.8755036      703.60549     -2.4675723      701.13792    
    227000   288.52267      0.0018564113  -0.09429408     715.83269     -2.195219       713.63747    
    228000   320.72677      0.0018564113   1.6072049      795.73196     -1.8655629      793.8664     
    229000   309.28314      0.0018564113   2.6381371      767.34        -3.6583132      763.68169    
    230000   287.33971      0.0018564113   2.7929941      712.89774     -3.8579861      709.03975    
    231000   294.39854      0.0018564113   0.64461833     730.41088     -2.1636535      728.24723    
    232000   297.64234      0.0018564113  -0.82489016     738.45885     -1.53488        736.92397    
    233000   320.70473      0.0018564113   0.48459788     795.67728     -2.6400785      793.03721    
    234000   305.44811      0.0018564113   1.69132        757.82519     -1.1109505      756.71424    
    235000   297.34067      0.0018564113  -0.570332       737.71039     -1.5346773      736.17571    
    236000   301.84911      0.0018564113   0.2291729      748.89596     -1.6958903      747.20007    
    237000   309.37224      0.0018564113   4.1079959      767.56106     -2.2860164      765.27504    
    238000   298.32904      0.0018564113   2.1821156      740.16257     -2.1432979      738.01927    
    239000   291.93065      0.0018564113  -2.5219609      724.288       -1.8113927      722.4766     
    240000   300.7068       0.0018564113   0.68176583     746.06185     -1.4999058      744.56195    
    241000   306.05856      0.0018564113   1.9446793      759.33972     -3.1858389      756.15388    
    242000   298.47106      0.0018564113   1.5743659      740.51493     -1.9953385      738.5196     
    243000   293.96341      0.0018564113  -0.10095552     729.33133     -2.7300944      726.60124    
    244000   299.55848      0.0018564113   1.0419688      743.21285     -5.1204151      738.09244    
    245000   305.30656      0.0018564113   1.6266535      757.47398     -3.9465574      753.52742    
    246000   295.52034      0.0018564113   1.5797109      733.19411     -2.782257       730.41185    
    247000   290.60184      0.0018564113  -0.7949667      720.99117     -4.7556101      716.23556    
    248000   305.77905      0.0018564113   0.8008389      758.64625     -3.0595859      755.58666    
    249000   307.66156      0.0018564113   1.4785438      763.31682     -2.5858545      760.73096    
    250000   296.55155      0.0018564113   2.4459534      735.75256     -3.3517333      732.40082    
    251000   288.41143      0.0018564113   0.59284829     715.55671     -3.3088312      712.24788    
    252000   315.54109      0.0018564113   0.53579799     782.86614     -1.0931288      781.77301    
    253000   305.1703       0.0018564113   2.7308609      757.13593     -1.7516175      755.38431    
    254000   295.14294      0.0018564113   1.2029017      732.25778     -2.8319539      729.42582    
    255000   294.03058      0.0018564113  -0.60196234     729.49798     -2.159281       727.3387     
    256000   304.86263      0.0018564113   0.11109003     756.3726      -3.6498466      752.72275    
    257000   311.76667      0.0018564113   1.9595698      773.5017      -1.0026689      772.49903    
    258000   301.69647      0.0018564113   2.3094014      748.51726     -1.7928376      746.72443    
    259000   298.35246      0.0018564113   0.080223057    740.22067     -4.0599524      736.16072    
    260000   298.94225      0.0018564113   0.95201154     741.68397     -2.5530859      739.13088    
    261000   301.44561      0.0018564113   2.0364981      747.89486     -1.5608967      746.33396    
    262000   311.35651      0.0018564113   2.108377       772.48409     -1.7321163      770.75198    
    263000   283.79824      0.0018564113  -1.4741922      704.11126     -0.29865996     703.8126     
    264000   305.28544      0.0018564113   0.54895196     757.42158     -2.4292644      754.99232    
    265000   305.62392      0.0018564113   3.0299216      758.26138     -2.4538405      755.80754    
    266000   290.9078       0.0018564113   0.88875662     721.75028     -1.4085866      720.34169    
    267000   304.69512      0.0018564113  -0.41238972     755.95699     -2.1688919      753.78809    
    268000   313.7989       0.0018564113   1.2492614      778.54372     -1.8641383      776.67958    
    269000   305.63063      0.0018564113   1.2482677      758.27802     -1.3110715      756.96695    
    270000   289.84714      0.0018564113   1.2893205      719.11875     -1.7297759      717.38898    
    271000   300.40116      0.0018564113  -0.12667078     745.30355     -2.7661991      742.53735    
    272000   318.12983      0.0018564113   0.50523729     789.28887     -3.0579111      786.23096    
    273000   296.23262      0.0018564113   2.2185187      734.96129     -0.7191712      734.24212    
    274000   285.03086      0.0018564113   0.50242659     707.16941     -2.3455617      704.82385    
    275000   307.79463      0.0018564113   1.0495319      763.64695     -3.6735794      759.97337    
    276000   313.24005      0.0018564113   3.6422809      777.15719     -3.1071964      774.04999    
    277000   291.763        0.0018564113   1.9592877      723.87206     -4.1169152      719.75514    
    278000   295.96541      0.0018564113   0.39567784     734.29834     -2.026544       732.2718     
    279000   309.35589      0.0018564113   0.68835137     767.52049     -1.7040987      765.8164     
    280000   304.98603      0.0018564113   1.1466816      756.67876      0.5920493      757.27081    
    281000   280.40872      0.0018564113   2.2220937      695.70175     -0.80077856     694.90097    
    282000   301.16757      0.0018564113   0.29380689     747.20505     -0.17135247     747.0337     
    283000   319.0881       0.0018564113   1.8559431      791.66637     -0.51741165     791.14896    
    284000   297.30782      0.0018564113   2.0211064      737.62891     -2.9924059      734.6365     
    285000   292.87914      0.0018564113   0.52317728     726.64121     -2.0677832      724.57343    
    286000   321.40657      0.0018564113   0.25543935     797.41855     -2.044026       795.37453    
    287000   306.94689      0.0018564113   1.4213608      761.54369     -3.8948261      757.64886    
    288000   296.72728      0.0018564113   1.354566       736.18857     -3.6734014      732.51517    
    289000   287.48995      0.0018564113   0.97135524     713.2705      -2.6232053      710.64729    
    290000   300.72295      0.0018564113   0.24843377     746.10193     -4.122582       741.97935    
    291000   303.05136      0.0018564113   2.015753       751.87878     -3.5150166      748.36376    
    292000   303.22313      0.0018564113   1.037669       752.30494     -2.7342725      749.57066    
    293000   288.36877      0.0018564113   0.89161732     715.45086     -2.2638188      713.18704    
    294000   301.81426      0.0018564113   0.052938559    748.80949     -1.5463367      747.26315    
    295000   305.19475      0.0018564113   1.3344311      757.19658     -1.7837539      755.41283    
    296000   303.10579      0.0018564113   2.2891333      752.01382     -2.0098861      750.00394    
    297000   291.21701      0.0018564113   0.9621014      722.51744     -3.039011       719.47843    
    298000   303.52437      0.0018564113   0.89817477     753.05233     -3.0947489      749.95758    
    299000   306.56011      0.0018564113   1.1389047      760.58408     -2.8851798      757.6989     
    300000   295.62814      0.0018564113   1.2721135      733.46158     -3.2717357      730.18984    
    301000   292.91965      0.0018564113   0.80368355     726.74173     -2.6795781      724.06215    
    302000   302.2082       0.0018564113   0.21705953     749.78686     -4.3500928      745.43677    
    303000   310.31385      0.0018564113   1.3464591      769.89722     -2.9331392      766.96408    
    304000   300.31713      0.0018564113   1.3279369      745.09508     -2.417956       742.67712    
    305000   292.68796      0.0018564113   1.247232       726.16689     -2.6643726      723.50251    
    306000   295.03835      0.0018564113   0.56845202     731.99828     -2.5027611      729.49552    
    307000   312.69765      0.0018564113   1.1290747      775.81149     -2.2117484      773.59974    
    308000   306.11421      0.0018564113   1.2655984      759.47779     -2.3520933      757.1257     
    309000   296.919        0.0018564113   1.1809968      736.66422     -3.0595132      733.60471    
    310000   293.21602      0.0018564113   0.743974       727.47702     -2.135061       725.34195    
    311000   303.51292      0.0018564113   1.0865114      753.02391     -1.808601       751.21531    
    312000   300.6848       0.0018564113   0.93210335     746.00729     -1.8036967      744.20359    
    313000   306.52957      0.0018564113   1.3600859      760.50831     -1.7274955      758.78081    
    314000   308.33275      0.0018564113   1.0336351      764.98205     -2.2908306      762.69122    
    315000   292.32149      0.0018564113   1.0151887      725.25769     -1.3012489      723.95644    
    316000   300.15933      0.0018564113   1.1960569      744.70358     -2.8895002      741.81408    
    317000   313.87103      0.0018564113   1.0905554      778.72267     -3.7616576      774.96101    
    318000   293.13128      0.0018564113   1.3570043      727.2668      -3.2499839      724.01681    
    319000   294.38399      0.0018564113   0.79722941     730.37479     -3.4835551      726.89123    
    320000   326.70907      0.0018564113   0.92329249     810.5742      -3.0003356      807.57386    
    321000   305.05026      0.0018564113   1.1237591      756.83812     -2.7906106      754.04751    
    322000   288.82313      0.0018564113   1.0329249      716.57814     -5.0141533      711.56399    
    323000   289.21127      0.0018564113   1.0192972      717.54114     -3.418563       714.12258    
    324000   319.23106      0.0018564113   1.0764229      792.02105     -5.3260255      786.69502    
    325000   314.27761      0.0018564113   1.1680265      779.7314      -3.075646       776.65576    
    326000   291.63195      0.0018564113   0.98350476     723.54691     -2.6505827      720.89633    
    327000   301.59337      0.0018564113   0.90525619     748.26147     -7.4037118      740.85776    
    328000   299.52615      0.0018564113   0.91433848     743.13264     -5.4047368      737.72791    
    329000   299.92851      0.0018564113   1.1214201      744.13091     -5.5291121      738.6018     
    330000   306.17626      0.0018564113   1.0601191      759.63174     -4.5660345      755.0657     
    331000   301.34299      0.0018564113   1.0167498      747.64027     -5.5598597      742.08041    
    332000   295.45225      0.0018564113   1.0675904      733.02517     -4.0495461      728.97562    
    333000   301.92582      0.0018564113   0.91356255     749.08628     -4.64739        744.43889    
    334000   296.34981      0.0018564113   0.98329256     735.25204     -4.463484       730.78855    
    335000   300.04866      0.0018564113   1.7902667      744.429       -2.87687        741.55213    
    336000   317.09585      0.0018564113   1.3625595      786.72355     -3.9392995      782.78425    
    337000   312.97503      0.0018564113   1.024647       776.49968     -1.8829254      774.61675    
    338000   298.34505      0.0018564113   0.92654717     740.2023      -2.6744608      737.52784    
    339000   284.50713      0.0018564113   1.1170197      705.87002     -3.9539222      701.9161     
    340000   296.05237      0.0018564113   1.1857335      734.5141      -3.4877936      731.02631    
    341000   312.18701      0.0018564113   0.75525913     774.54457     -3.6467364      770.89783    
    342000   294.59233      0.0018564113   0.41176762     730.89169     -1.4568954      729.4348     
    343000   287.40629      0.0018564113   0.78139888     713.06292     -2.4913648      710.57155    
    344000   305.45867      0.0018564113   1.0746272      757.85137     -3.2257104      754.62566    
    345000   302.10049      0.0018564113   1.0872594      749.51963     -2.6306765      746.88896    
    346000   296.04126      0.0018564113   0.77571882     734.48652     -2.0820987      732.40442    
    347000   296.44515      0.0018564113   0.86904168     735.48859     -2.6108103      732.87778    
    348000   309.97715      0.0018564113   1.2781106      769.06185     -3.2209593      765.84089    
    349000   314.14881      0.0018564113   0.89623655     779.41186     -3.1491906      776.26267    
    350000   291.36736      0.0018564113   0.1074708      722.89044     -2.8746456      720.01579    
    351000   285.29853      0.0018564113   0.57659273     707.83351     -1.938832       705.89468    
    352000   301.06833      0.0018564113   2.9240921      746.95883     -1.8470051      745.11183    
    353000   309.50963      0.0018564113   0.9395896      767.90192     -4.6040231      763.2979     
    354000   295.90977      0.0018564113   0.081557621    734.16031     -3.6065882      730.55372    
    355000   290.34973      0.0018564113   0.49561834     720.36569     -4.6215958      715.7441     
    356000   293.99023      0.0018564113   2.431425       729.39787     -2.8491749      726.54869    
    357000   314.48099      0.0018564113   1.1284719      780.23601     -5.3771515      774.85886    
    358000   293.6851       0.0018564113  -0.29659673     728.64083     -4.0930473      724.54778    
    359000   296.34625      0.0018564113  -0.34028448     735.24321     -2.2407973      733.00242    
    360000   298.68122      0.0018564113   1.5603527      741.03634     -3.4904838      737.54585    
    361000   298.47439      0.0018564113   2.6510598      740.52318     -1.7850578      738.73813    
    362000   296.65897      0.0018564113   1.8737955      736.01909     -2.8850545      733.13404    
    363000   309.71896      0.0018564113  -0.00057037124  768.42127     -3.9947898      764.42648    
    364000   313.85561      0.0018564113  -2.1266981      778.68442     -3.7710532      774.91337    
    365000   267.15796      0.0018564113  -1.9839679      662.82625     -5.4766794      657.34957    
    366000   292.15884      0.0018564113   1.5314801      724.85414     -5.3725865      719.48155    
    367000   303.0561       0.0018564113   1.5620136      751.89054     -5.6026646      746.28788    
    368000   314.2269       0.0018564113   0.33201686     779.60561     -4.6319129      774.9737     
    369000   294.36741      0.0018564113  -1.1524632      730.33365     -4.611911       725.72174    
    370000   293.58087      0.0018564113   1.0563934      728.38222     -3.6855179      724.6967     
    371000   314.77189      0.0018564113   3.743415       780.95773     -3.5601383      777.39759    
    372000   302.10151      0.0018564113   0.13269621     749.52219     -1.1849073      748.33728    
    373000   286.00889      0.0018564113   0.96438279     709.59595     -1.9028087      707.69314    
    374000   306.74934      0.0018564113   1.8681922      761.05358     -2.6553776      758.3982     
    375000   306.33968      0.0018564113  -2.1325986      760.03719     -3.0929212      756.94427    
    376000   288.03084      0.0018564113  -0.70282542     714.61247     -2.5282943      712.08417    
    377000   295.85633      0.0018564113   1.2298329      734.0277      -2.7633678      731.26434    
    378000   313.21181      0.0018564113   3.9147741      777.08713     -2.7020455      774.38509    
    379000   301.29619      0.0018564113  -0.43390288     747.52416     -4.3790344      743.14513    
    380000   297.40032      0.0018564113   3.3976892      737.85838     -2.871524       734.98686    
    381000   311.45755      0.0018564113   1.3930802      772.73477     -3.7262121      769.00856    
    382000   287.25199      0.0018564113  -1.1502003      712.6801      -2.716351       709.96375    
    383000   288.87452      0.0018564113  -1.9667876      716.70564     -3.3517167      713.35392    
    384000   305.5507       0.0018564113   1.1780327      758.07972     -2.4403019      755.63941    
    385000   299.39728      0.0018564113   3.3978931      742.81291     -2.7218555      740.09105    
    386000   301.51409      0.0018564113   0.5694394      748.06476     -3.7217597      744.343      
    387000   298.56787      0.0018564113  -0.14976443     740.75512     -4.5795922      736.17553    
    388000   304.0952       0.0018564113   3.1132056      754.46858     -4.2525652      750.21601    
    389000   300.64647      0.0018564113   3.6767754      745.91219     -2.4382572      743.47393    
    390000   292.39018      0.0018564113   0.0057143839   725.4281      -5.0595677      720.36854    
    391000   295.26188      0.0018564113   0.13060123     732.55286     -5.3606969      727.19216    
    392000   303.45726      0.0018564113   2.1883523      752.88584     -3.4073692      749.47847    
    393000   300.12484      0.0018564113   2.7762805      744.61799     -3.3324196      741.28557    
    394000   294.85569      0.0018564113   0.75872856     731.5451      -2.2572091      729.28789    
    395000   305.81041      0.0018564113  -0.54030611     758.72406     -2.8116892      755.91237    
    396000   308.86573      0.0018564113  -1.9682076      766.30439     -2.4851048      763.81929    
    397000   294.62447      0.0018564113   1.2402451      730.97142     -3.5298292      727.44159    
    398000   303.79502      0.0018564113   1.0813313      753.72381     -2.3228663      751.40095    
    399000   290.58027      0.0018564113  -0.4621466      720.93767     -1.0283817      719.90929    
    400000   299.77752      0.0018564113   1.7937815      743.7563      -3.6077682      740.14853    
    401000   308.87212      0.0018564113   0.96580845     766.32024     -4.0615143      762.25872    
    402000   295.49307      0.0018564113   0.17719098     733.12646     -4.8206627      728.3058     
    403000   296.93238      0.0018564113   1.0623881      736.69742     -3.2320201      733.4654     
    404000   313.13177      0.0018564113   2.025625       776.88856     -2.1971053      774.69146    
    405000   315.61501      0.0018564113   0.56018547     783.04954     -2.3225001      780.72704    
    406000   295.98269      0.0018564113   1.0047621      734.34121     -2.0431084      732.2981     
    407000   301.49984      0.0018564113   1.5768672      748.02941     -2.4739944      745.55542    
    408000   316.2075       0.0018564113   0.97530792     784.51953     -1.6474932      782.87204    
    409000   318.05593      0.0018564113  -0.71956251     789.10554     -2.7944288      786.31111    
    410000   285.30732      0.0018564113  -0.018560881    707.85532     -2.5019631      705.35336    
    411000   292.6191       0.0018564113   1.6493048      725.99605     -1.5300683      724.46598    
    412000   321.98173      0.0018564113   1.2074302      798.84556     -3.6699871      795.17557    
    413000   306.11713      0.0018564113   0.76554947     759.48503     -4.7954938      754.68954    
    414000   280.95356      0.0018564113   0.99167636     697.05353     -2.6205454      694.43299    
    415000   295.79576      0.0018564113   0.86480185     733.87744     -3.9087146      729.96873    
    416000   316.1442       0.0018564113   1.0729385      784.36248     -4.8717101      779.49077    
    417000   309.71677      0.0018564113   0.5452635      768.41584     -3.0985742      765.31727    
    418000   286.44827      0.0018564113   1.0660379      710.68606     -4.0273634      706.6587     
    419000   294.68415      0.0018564113   1.3535156      731.11949     -4.9304203      726.18907    
    420000   310.83535      0.0018564113   0.64286918     771.19108     -1.2076945      769.98338    
    421000   293.00228      0.0018564113   1.2360685      726.94673     -2.777438       724.16929    
    422000   299.86617      0.0018564113   1.8396306      743.97623     -2.1021073      741.87412    
    423000   299.79103      0.0018564113   1.0546979      743.78981     -2.6837705      741.10604    
    424000   305.56011      0.0018564113   0.068983       758.10306     -2.0426536      756.0604     
    425000   289.94621      0.0018564113   0.58853126     719.36454     -2.5814116      716.78312    
    426000   287.65652      0.0018564113   1.9806895      713.68376     -3.048647       710.63511    
    427000   308.63334      0.0018564113   1.5688577      765.72782     -2.7383031      762.98952    
    428000   302.75965      0.0018564113   1.1765129      751.15505     -2.5938919      748.56116    
    429000   296.44157      0.0018564113   0.15574375     735.4797      -2.8055874      732.67412    
    430000   286.25943      0.0018564113   1.0669201      710.21753     -2.689536       707.528      
    431000   312.42516      0.0018564113   2.5554356      775.13542     -0.31396795     774.82146    
    432000   301.91682      0.0018564113   2.1696571      749.06395     -1.8967882      747.16717    
    433000   301.66712      0.0018564113   0.33665043     748.44444     -1.4265062      747.01793    
    434000   302.28509      0.0018564113   0.13390706     749.97764     -1.6255786      748.35206    
    435000   285.95077      0.0018564113   1.3813612      709.45174     -1.0817754      708.36996    
    436000   303.2273       0.0018564113   2.2030372      752.31529     -2.9185324      749.39675    
    437000   310.4163       0.0018564113  -0.054171476    770.15141     -2.1341653      768.01724    
    438000   304.52723      0.0018564113  -0.83984983     755.54046     -1.904654       753.6358     
    439000   288.88719      0.0018564113   1.2866072      716.73709     -1.8807262      714.85636    
    440000   305.4906       0.0018564113   3.1586255      757.93061     -3.3859511      754.54466    
    441000   317.49031      0.0018564113   0.85026896     787.70222     -2.1324131      785.5698     
    442000   308.48079      0.0018564113  -0.27601611     765.34934     -2.8164955      762.53284    
    443000   293.61222      0.0018564113   1.3964517      728.46001     -2.8776787      725.58233    
    444000   285.57425      0.0018564113   1.2728388      708.51759     -3.160233       705.35736    
    445000   315.68236      0.0018564113   2.2458594      783.21663     -4.3344626      778.88217    
    446000   295.03171      0.0018564113  -0.17177371     731.98182     -1.7542843      730.22753    
    447000   305.18655      0.0018564113   3.3713132      757.17625     -2.4909572      754.6853     
    448000   301.61095      0.0018564113   1.1674141      748.30508     -3.4124986      744.89258    
    449000   301.0284       0.0018564113  -0.35673875     746.85975     -3.8850534      742.97469    
    450000   294.59118      0.0018564113  -0.84038548     730.88885     -4.678059       726.21079    
    451000   289.56439      0.0018564113   1.2514504      718.41723     -3.7889934      714.62824    
    452000   299.51387      0.0018564113   1.1999187      743.10216     -3.3853513      739.71681    
    453000   301.19837      0.0018564113   1.7166508      747.28146     -2.9881389      744.29332    
    454000   303.99545      0.0018564113   0.90454569     754.2211      -4.2230022      749.9981     
    455000   293.87637      0.0018564113   0.08956079     729.11539     -3.1196909      725.99569    
    456000   298.58706      0.0018564113   2.0743123      740.80272     -2.4418314      738.36089    
    457000   297.38597      0.0018564113   1.1675519      737.82278     -2.0744034      735.74838    
    458000   296.30101      0.0018564113  -1.1787521      735.13097     -2.1861974      732.94478    
    459000   296.56899      0.0018564113  -0.11388786     735.79584     -1.9252661      733.87058    
    460000   292.77289      0.0018564113   2.3982902      726.37762     -1.7790571      724.59857    
    461000   302.74945      0.0018564113   1.1223517      751.12973     -1.6205406      749.50919    
    462000   303.33138      0.0018564113  -0.025431101    752.57351     -1.3317272      751.24179    
    463000   300.08656      0.0018564113   1.0143015      744.52303     -1.9213643      742.60167    
    464000   288.05341      0.0018564113   1.4624188      714.66846     -2.3114548      712.357      
    465000   298.12548      0.0018564113   1.3484261      739.65752     -2.7115015      736.94602    
    466000   302.92468      0.0018564113   0.98907193     751.56448     -2.9056051      748.65887    
    467000   299.0673       0.0018564113  -0.22519491     741.99421     -1.4448389      740.54937    
    468000   284.25246      0.0018564113   0.96338136     705.2382      -2.5088882      702.72931    
    469000   308.81718      0.0018564113   2.3523713      766.18394     -1.4185203      764.76542    
    470000   301.54514      0.0018564113   0.84329543     748.14181     -3.2301801      744.91163    
    471000   296.42049      0.0018564113   0.056165661    735.42742     -2.6272902      732.80013    
    472000   293.23032      0.0018564113   0.1424787      727.51252     -1.5585619      725.95396    
    473000   309.15364      0.0018564113   3.3361859      767.0187      -1.7245823      765.29412    
    474000   307.68276      0.0018564113   1.2307672      763.36941     -2.4839889      760.88542    
    475000   286.94553      0.0018564113   0.22114918     711.91978     -2.1707566      709.74902    
    476000   290.15936      0.0018564113   0.626615       719.89338     -2.1195834      717.77379    
    477000   295.59544      0.0018564113   2.3652977      733.38044     -3.2796233      730.10081    
    478000   318.89184      0.0018564113   1.0854689      791.17945     -1.4962708      789.68318    
    479000   321.38772      0.0018564113  -2.2866657      797.37178     -4.0142428      793.35754    
    480000   297.37352      0.0018564113   0.40707031     737.79191     -3.7223621      734.06954    
    481000   281.59495      0.0018564113   2.0378783      698.64482     -4.7860376      693.85878    
    482000   302.51308      0.0018564113   2.7371164      750.54329     -3.6550316      746.88826    
    483000   309.68223      0.0018564113   1.7192389      768.33015     -3.7294246      764.60073    
    484000   306.93291      0.0018564113   0.61430492     761.50902     -3.9912912      757.51773    
    485000   286.84075      0.0018564113  -0.34015523     711.65981     -3.448554       708.21125    
    486000   293.059        0.0018564113   1.0503072      727.08747     -2.6346509      724.45282    
    487000   307.44858      0.0018564113   1.160732       762.78841     -2.1102617      760.67814    
    488000   315.57945      0.0018564113   0.63556337     782.96131     -2.7007034      780.26061    
    489000   305.15614      0.0018564113   0.93400435     757.10081     -2.766669       754.33414    
    490000   299.59487      0.0018564113   1.1325373      743.30312     -4.0183747      739.28475    
    491000   299.47045      0.0018564113   1.1340204      742.99443     -3.41261        739.58182    
    492000   309.55824      0.0018564113   0.98059368     768.02252     -5.1965477      762.82597    
    493000   301.06689      0.0018564113   0.37486504     746.95524     -1.3175587      745.63769    
    494000   303.12896      0.0018564113   1.8449159      752.07131     -2.6164635      749.45485    
    495000   298.57913      0.0018564113   1.1042636      740.78305     -2.4697816      738.31327    
    496000   317.34563      0.0018564113   0.46007302     787.34326     -2.6963344      784.64693    
    497000   308.88226      0.0018564113   1.5631769      766.34539     -3.014039       763.33136    
    498000   290.05276      0.0018564113   1.4271176      719.6289      -2.5426428      717.08625    
    499000   298.45307      0.0018564113   0.91258809     740.4703      -2.0738243      738.39647    
    500000   307.83591      0.0018564113   1.0642056      763.74937     -3.5783372      760.17103    
    501000   296.43045      0.0018564113   1.311137       735.45211     -4.5186185      730.93349    
    502000   292.43049      0.0018564113   1.2767082      725.5281      -3.0777477      722.45035    
    503000   300.85593      0.0018564113   0.87111111     746.43185     -3.4709625      742.96089    
    504000   314.07452      0.0018564113   0.82250789     779.22755     -2.8378506      776.3897     
    505000   294.25942      0.0018564113   1.1430043      730.06574     -4.6422865      725.42345    
    506000   297.05145      0.0018564113   0.96555927     736.99283     -4.3312574      732.66157    
    507000   309.66008      0.0018564113   1.0127668      768.27519     -4.4844205      763.79077    
    508000   306.95389      0.0018564113   0.68466182     761.56107     -4.8739837      756.68708    
    509000   288.15481      0.0018564113   1.3295855      714.92002     -4.9651734      709.95484    
    510000   306.14505      0.0018564113   1.0897097      759.55431     -3.4841787      756.07013    
    511000   304.456        0.0018564113   0.70628975     755.36372     -2.7793124      752.58441    
    512000   296.42116      0.0018564113   0.69962786     735.42907     -4.3817819      731.04729    
    513000   289.88853      0.0018564113   1.2003018      719.22142     -3.5282937      715.69313    
    514000   302.17725      0.0018564113   1.3943155      749.71009     -3.519601       746.19049    
    515000   306.16085      0.0018564113   2.0074616      759.59351     -2.3163137      757.27719    
    516000   302.26635      0.0018564113   0.44158301     749.93115     -3.3421609      746.58899    
    517000   289.00082      0.0018564113   1.965501       717.019       -2.9190248      714.09998    
    518000   295.50808      0.0018564113   1.3186114      733.1637      -2.2384616      730.92524    
    519000   306.33543      0.0018564113   0.84047361     760.02665     -2.379798       757.64685    
    520000   292.92083      0.0018564113   0.89238605     726.74465     -2.3878468      724.3568     
    521000   295.20802      0.0018564113   1.2621387      732.41923     -2.5468761      729.87236    
    522000   304.50343      0.0018564113   1.6009139      755.48141     -1.4331393      754.04827    
    523000   303.43222      0.0018564113   1.1429367      752.8237      -1.6095027      751.2142     
    524000   307.68455      0.0018564113   0.17722124     763.37386     -2.1575732      761.21628    
    525000   290.2028       0.0018564113   0.65800707     720.00114     -3.8641434      716.13699    
    526000   314.38756      0.0018564113   2.4749615      780.00421     -3.1841294      776.82008    
    527000   306.15629      0.0018564113   0.41572023     759.5822      -4.4584601      755.12374    
    528000   295.62584      0.0018564113   1.4590732      733.45586     -3.6003464      729.85551    
    529000   291.43126      0.0018564113   1.7150135      723.04899     -3.6762392      719.37275    
    530000   301.95305      0.0018564113   1.6673653      749.15385     -3.5821115      745.57174    
    531000   312.32898      0.0018564113   1.0482001      774.89682     -3.5587037      771.33812    
    532000   300.85412      0.0018564113   0.78007571     746.42735     -4.5711064      741.85625    
    533000   274.28999      0.0018564113   0.89476595     680.52103     -3.7560666      676.76497    
    534000   297.11657      0.0018564113   1.2608443      737.1544      -4.4213207      732.73308    
    535000   310.83369      0.0018564113   0.75482723     771.18696     -4.0575048      767.12945    
    536000   299.78549      0.0018564113   0.15877052     743.77605     -3.723079       740.05297    
    537000   297.76044      0.0018564113   1.4219964      738.75186     -1.6650925      737.08676    
    538000   302.75311      0.0018564113   1.343573       751.13881     -1.9292139      749.20959    
    539000   311.65074      0.0018564113   1.1643073      773.21409     -2.8115738      770.40251    
    540000   307.22533      0.0018564113   0.97879248     762.23452     -3.1515073      759.08301    
    541000   291.22678      0.0018564113   1.1401528      722.54168     -5.3328139      717.20887    
    542000   292.2283       0.0018564113   0.98438318     725.02648     -2.7771211      722.24936    
    543000   303.72732      0.0018564113   1.0300109      753.55584     -2.5296041      751.02624    
    544000   294.68079      0.0018564113   1.4349556      731.11117     -3.3271132      727.78405    
    545000   300.64341      0.0018564113   1.1305677      745.90458     -3.2281385      742.67645    
    546000   299.97867      0.0018564113   0.86471172     744.25536     -2.8093589      741.446      
    547000   307.24965      0.0018564113   0.97117913     762.29485     -6.3454966      755.94935    
    548000   294.47942      0.0018564113   2.1204479      730.61157     -3.6643983      726.94717    
    549000   285.73415      0.0018564113   1.0720172      708.9143      -4.8109721      704.10333    
    550000   308.959        0.0018564113   0.48844684     766.5358      -5.7030093      760.83279    
    551000   302.63698      0.0018564113   1.280504       750.85069     -6.7580485      744.09265    
    552000   289.69158      0.0018564113   1.3107484      718.7328      -4.6565859      714.07621    
    553000   300.32096      0.0018564113   0.53523852     745.10458     -2.4320428      742.67254    
    554000   312.43109      0.0018564113  -0.11626146     775.15014     -2.7028537      772.44728    
    555000   303.30817      0.0018564113   1.9142764      752.51593     -3.3861531      749.12978    
    556000   299.99948      0.0018564113   1.4761911      744.30699     -2.7226341      741.58435    
    557000   299.496        0.0018564113   0.74074052     743.05784     -3.566279       739.49156    
    558000   305.53541      0.0018564113  -0.46077126     758.04178     -5.0980942      752.94368    
    559000   308.63117      0.0018564113   1.5130965      765.72243     -4.2172938      761.50514    
    560000   292.71051      0.0018564113   2.0687817      726.22283     -3.8033996      722.41943    
    561000   296.92321      0.0018564113   0.45330923     736.67466     -1.8795661      734.79509    
    562000   318.59127      0.0018564113   1.0579238      790.43373     -3.5491862      786.88455    
    563000   302.09085      0.0018564113   2.9904659      749.49573     -2.7052484      746.79048    
    564000   289.71805      0.0018564113   1.7005823      718.79847     -2.1141271      716.68434    
    565000   295.69928      0.0018564113   0.69660928     733.63807     -3.3501685      730.2879     
    566000   305.08697      0.0018564113   0.45454757     756.92919     -2.7309388      754.19825    
    567000   303.54049      0.0018564113   3.8551797      753.09233     -2.7481927      750.34414    
    568000   292.33357      0.0018564113   1.0926013      725.28766     -2.5392952      722.74836    
    569000   306.8625       0.0018564113   0.30372308     761.33432     -2.7214573      758.61286    
    570000   300.4637       0.0018564113   1.1910271      745.45873     -3.9384178      741.52031    
    571000   293.19068      0.0018564113   2.6322496      727.41415     -5.4151093      721.99904    
    572000   300.62357      0.0018564113   1.004444       745.85536     -4.4203164      741.43504    
    573000   309.79032      0.0018564113  -0.98601668     768.59832     -5.2103227      763.388      
    574000   295.43333      0.0018564113   2.1337301      732.97824     -4.3901366      728.5881     
    575000   290.20129      0.0018564113  -0.46341539     719.9974      -1.7060313      718.29137    
    576000   310.93905      0.0018564113   0.66591562     771.44836     -4.4154502      767.03291    
    577000   310.69876      0.0018564113   4.0706257      770.8522      -3.0635154      767.78868    
    578000   293.79407      0.0018564113   0.68491004     728.91119     -3.9669379      724.94425    
    579000   303.54777      0.0018564113   0.99167113     753.11039     -3.8638677      749.24652    
    580000   295.93097      0.0018564113   1.9421672      734.21289     -4.6227799      729.59011    
    581000   300.75325      0.0018564113  -0.31009247     746.1771      -4.1904318      741.98666    
    582000   306.22941      0.0018564113   0.89497905     759.76361     -3.0446901      756.71892    
    583000   289.44913      0.0018564113   3.0651977      718.13126     -2.839086       715.29217    
    584000   297.7476       0.0018564113   1.8105988      738.72001     -2.8771713      735.84284    
    585000   299.53512      0.0018564113   0.046237542    743.1549      -1.471722       741.68317    
    586000   309.99029      0.0018564113   0.70663541     769.09445     -4.8787195      764.21573    
    587000   294.49365      0.0018564113   2.313776       730.64686     -5.627909       725.01895    
    588000   290.191        0.0018564113   0.17523086     719.97186     -3.3921996      716.57966    
    589000   318.09716      0.0018564113   0.11848553     789.20783     -4.9224912      784.28534    
    590000   297.75281      0.0018564113   1.001348       738.73293     -4.5613679      734.17156    
    591000   296.70316      0.0018564113   1.6091252      736.12871     -6.332677       729.79603    
    592000   291.00367      0.0018564113   0.6703377      721.98814     -1.7870838      720.20105    
    593000   292.95765      0.0018564113   1.6917944      726.836       -1.6904942      725.14551    
    594000   292.29604      0.0018564113  -0.13043115     725.19453     -3.4139259      721.78061    
    595000   298.10625      0.0018564113   0.028890411    739.60983     -3.8921196      735.71771    
    596000   304.74591      0.0018564113   2.0476489      756.083       -3.6777055      752.40529    
    597000   304.85397      0.0018564113   2.6571156      756.35109     -2.03204        754.31905    
    598000   293.43802      0.0018564113   1.68933        728.02781     -2.8107576      725.21705    
    599000   285.83696      0.0018564113   0.1636368      709.16938     -0.63622052     708.53316    
    600000   313.22612      0.0018564113   2.2521877      777.12263     -2.3397954      774.78284    
    601000   297.85243      0.0018564113   1.8536392      738.9801      -2.3974293      736.58267    
    602000   285.0972       0.0018564113  -0.99754125     707.334       -3.1619923      704.17201    
    603000   301.66877      0.0018564113   0.5924122      748.44854     -1.9312317      746.5173     
    604000   319.33389      0.0018564113   1.166444       792.27617     -2.3715106      789.90466    
    605000   299.33641      0.0018564113   2.5560145      742.66188     -4.0113112      738.65057    
    606000   288.13244      0.0018564113   1.4689143      714.86453     -3.5227883      711.34175    
    607000   288.84488      0.0018564113   0.79302977     716.63212     -4.3309942      712.30112    
    608000   310.71739      0.0018564113   0.93095054     770.89842     -6.2433568      764.65506    
    609000   305.27367      0.0018564113   1.6687852      757.39239     -4.2080861      753.18431    
    610000   282.04088      0.0018564113   1.0611276      699.7512      -4.1880332      695.56317    
    611000   295.97877      0.0018564113   0.8168641      734.33148     -3.2939665      731.03751    
    612000   308.37826      0.0018564113   1.0823857      765.09497     -1.5379738      763.557      
    613000   301.08181      0.0018564113   1.1872568      746.99227     -3.8956326      743.09664    
    614000   290.77538      0.0018564113   1.0214335      721.42174     -2.1781499      719.24359    
    615000   302.39177      0.0018564113   0.76111608     750.24233     -2.1356896      748.10664    
    616000   315.48327      0.0018564113   0.51947744     782.72269     -1.2289374      781.49375    
    617000   306.09128      0.0018564113   1.0485294      759.4209      -2.3016895      757.11921    
    618000   297.12282      0.0018564113   1.2023834      737.1699      -1.0596064      736.11029    
    619000   290.62351      0.0018564113   1.0936152      721.04493     -2.8395344      718.2054     
    620000   293.80798      0.0018564113   0.41470036     728.94569     -3.8611205      725.08457    
    621000   299.32616      0.0018564113   0.48189272     742.63645     -2.8421473      739.7943     
    622000   301.42279      0.0018564113  -0.36088509     747.83824     -2.667877       745.17036    
    623000   300.91304      0.0018564113   2.7979153      746.57355     -3.5446773      743.02887    
    624000   279.13123      0.0018564113   2.5389556      692.53229     -2.7334213      689.79886    
    625000   305.83165      0.0018564113   0.38773341     758.77674     -1.390515       757.38623    
    626000   304.76703      0.0018564113  -0.22501495     756.1354      -3.2757085      752.8597     
    627000   300.92541      0.0018564113   1.4792178      746.60425     -4.4250058      742.17924    
    628000   307.85535      0.0018564113   1.8984403      763.79762     -3.8157296      759.98189    
    629000   287.84745      0.0018564113   1.0116828      714.15746     -3.2501181      710.90734    
    630000   301.37755      0.0018564113   0.48944996     747.72602     -2.5664612      745.15956    
    631000   307.66259      0.0018564113   1.5813435      763.31937     -3.3680388      759.95133    
    632000   308.14528      0.0018564113   1.624103       764.51694     -2.4587539      762.05819    
    633000   301.59707      0.0018564113  -0.34852367     748.27065     -1.4071636      746.86349    
    634000   305.04615      0.0018564113   1.154853       756.8279      -3.3197439      753.50815    
    635000   307.67015      0.0018564113   1.8238511      763.33811     -2.3826394      760.95547    
    636000   303.2266       0.0018564113   0.84180432     752.31355     -2.813638       749.49992    
    637000   307.12613      0.0018564113   0.90231444     761.9884      -1.7966378      760.19176    
    638000   296.02922      0.0018564113   1.551226       734.45665     -4.1861948      730.27045    
    639000   293.45569      0.0018564113   0.37204708     728.07165     -4.3932509      723.6784     
    640000   315.59709      0.0018564113   0.054142529    783.00509     -2.7230622      780.28203    
    641000   300.36051      0.0018564113   1.5967086      745.20271     -3.9103503      741.29236    
    642000   288.18282      0.0018564113   0.97658838     714.98953     -3.4749804      711.51455    
    643000   299.1873       0.0018564113   0.83165415     742.29193     -3.2646335      739.0273     
    644000   308.93151      0.0018564113   1.0114579      766.46758     -3.878396       762.58919    
    645000   307.92068      0.0018564113   1.1645391      763.95969     -3.8982997      760.06139    
    646000   298.24309      0.0018564113   1.2922222      739.94933     -4.6078547      735.34147    
    647000   296.2358       0.0018564113   1.0381151      734.96918     -5.5252145      729.44396    
    648000   309.88891      0.0018564113   1.0236601      768.84292     -5.0169878      763.82593    
    649000   298.29584      0.0018564113   1.0326422      740.0802      -3.6568673      736.42333    
    650000   295.20966      0.0018564113   1.1165615      732.42331     -5.1484646      727.27485    
    651000   297.88903      0.0018564113   1.1367086      739.07089     -4.8443291      734.22656    
    652000   304.2822       0.0018564113   0.5710687      754.93253     -4.2979631      750.63456    
    653000   303.42985      0.0018564113   1.0554492      752.81783     -3.7373426      749.08049    
    654000   289.14486      0.0018564113   1.811373       717.37636     -4.8516543      712.5247     
    655000   292.17003      0.0018564113   0.53523519     724.88191     -6.0506232      718.83128    
    656000   315.79233      0.0018564113   1.1458625      783.48947     -3.4616044      780.02786    
    657000   308.98786      0.0018564113   1.9957283      766.60739     -2.8655126      763.74188    
    658000   288.84592      0.0018564113   0.95477059     716.6347      -3.2949799      713.33972    
    659000   303.94667      0.0018564113   0.053255505    754.10006     -3.1631605      750.9369     
    660000   309.59189      0.0018564113   1.0457586      768.10601     -3.3431664      764.76284    
    661000   298.26861      0.0018564113   3.1280142      740.01264     -4.3936506      735.61899    
    662000   293.50404      0.0018564113   1.1733732      728.19161     -5.1528623      723.03875    
    663000   304.11556      0.0018564113   0.44862894     754.51908     -5.5011161      749.01796    
    664000   323.68025      0.0018564113   2.1379636      803.05961     -4.8926142      798.167      
    665000   294.75324      0.0018564113   4.2956813      731.29091     -7.0573867      724.23352    
    666000   289.19128      0.0018564113   0.11088293     717.49155     -4.668227       712.82332    
    667000   300.0455       0.0018564113  -0.54646759     744.42115     -5.2331989      739.18795    
    668000   313.65748      0.0018564113   0.53506255     778.19286     -5.1595449      773.03332    
    669000   308.68354      0.0018564113   2.7429878      765.85237     -6.1332514      759.71912    
    670000   291.50035      0.0018564113   2.4126689      723.22041     -6.3003847      716.92003    
    671000   290.90391      0.0018564113   1.3965789      721.74062     -4.8882775      716.85234    
    672000   300.65647      0.0018564113  -0.46464617     745.93698     -3.9039392      742.03304    
    673000   310.90295      0.0018564113   0.47978298     771.35879     -6.2534464      765.10535    
    674000   306.86532      0.0018564113   1.4581782      761.34132     -4.4808583      756.86046    
    675000   298.27199      0.0018564113   1.383866       740.02103     -6.4341236      733.58691    
    676000   292.73706      0.0018564113   0.44627923     726.28872     -5.3627573      720.92596    
    677000   282.24002      0.0018564113   1.2224913      700.24528     -5.5261993      694.71908    
    678000   307.77787      0.0018564113   0.98293032     763.60539     -3.6733938      759.93199    
    679000   301.1223       0.0018564113   1.0521675      747.09273     -3.9780302      743.1147     
    680000   291.50389      0.0018564113   1.0621735      723.22919     -4.1309307      719.09826    
    681000   301.27138      0.0018564113   1.0284794      747.46259     -4.1637589      743.29884    
    682000   305.26994      0.0018564113   1.0780331      757.38313     -4.5828504      752.80028    
    683000   296.17538      0.0018564113   0.6505775      734.81928     -4.2178146      730.60146    
    684000   293.29384      0.0018564113   1.1022701      727.67011     -4.8926621      722.77745    
    685000   297.59811      0.0018564113   1.0659464      738.34912     -8.0877146      730.26141    
    686000   304.73676      0.0018564113   0.94232198     756.06031     -6.7889943      749.27131    
    687000   308.28647      0.0018564113   1.0246497      764.86724     -3.5140275      761.35321    
    688000   303.88176      0.0018564113   1.3122113      753.93902     -3.9479628      749.99106    
    689000   287.20023      0.0018564113   1.0296494      712.55168     -2.6801476      709.87153    
    690000   289.52155      0.0018564113   0.73121036     718.31094     -3.295128       715.01581    
    691000   302.78767      0.0018564113   0.76033049     751.22456     -2.4389112      748.78565    
    692000   319.44401      0.0018564113   1.1639123      792.54939     -2.1408538      790.40853    
    693000   295.88795      0.0018564113   0.91070349     734.10617     -1.8626014      732.24356    
    694000   297.98978      0.0018564113   0.99273712     739.32086     -3.62204        735.69882    
    695000   305.1167       0.0018564113   0.96880302     757.00295     -2.267229       754.73572    
    696000   302.92168      0.0018564113   1.0112459      751.55704     -3.6099917      747.94705    
    697000   302.61553      0.0018564113   1.0375158      750.79748     -2.0079249      748.78955    
    698000   296.96243      0.0018564113   1.1078742      736.77197     -3.1901031      733.58186    
    699000   311.15687      0.0018564113   0.94824418     771.98876     -1.6601666      770.32859    
    700000   313.40037      0.0018564113   1.0425872      777.55495     -2.7442449      774.81071    
    701000   283.61231      0.0018564113   0.50837303     703.64996     -3.677377       699.97259    
    702000   288.71105      0.0018564113   1.3279223      716.30008     -4.3859342      711.91415    
    703000   307.13743      0.0018564113   1.0326718      762.01642     -3.6941945      758.32222    
    704000   300.51322      0.0018564113   0.8057802      745.58158     -2.3688089      743.21278    
    705000   293.38576      0.0018564113   1.0834751      727.89817     -0.60563499     727.29253    
    706000   296.87805      0.0018564113   1.5394095      736.56263     -3.9311737      732.63145    
    707000   309.88175      0.0018564113   0.9992804      768.82515     -5.3635043      763.46165    
    708000   301.27515      0.0018564113   0.76572832     747.47195     -4.1126553      743.35929    
    709000   292.86061      0.0018564113   0.98970595     726.59525     -2.4269218      724.16833    
    710000   296.99901      0.0018564113   1.1290084      736.86273     -1.3545914      735.50814    
    711000   305.72351      0.0018564113   1.0944847      758.50845     -3.1234715      755.38498    
    712000   305.9385       0.0018564113   1.0749655      759.04184     -4.5713648      754.47048    
    713000   311.50808      0.0018564113   1.0580803      772.86013     -6.9088438      765.95129    
    714000   298.71011      0.0018564113   0.86678943     741.10801     -5.3653428      735.74267    
    715000   303.17312      0.0018564113   1.02391        752.18087     -4.1652316      748.01564    
    716000   312.87867      0.0018564113   1.0225479      776.26061     -5.1905978      771.07001    
    717000   296.36744      0.0018564113   0.96163582     735.29578     -6.2113574      729.08442    
    718000   298.26149      0.0018564113   0.79514482     739.99499     -5.1450752      734.84991    
    719000   301.53465      0.0018564113   1.2686147      748.11577     -6.2830628      741.83271    
    720000   298.82138      0.0018564113   1.168969       741.38407     -5.5440935      735.83998    
    721000   302.52568      0.0018564113   0.97199655     750.57454     -5.5093039      745.06524    
    722000   301.32004      0.0018564113   0.82994638     747.58332     -6.6747666      740.90855    
    723000   297.5513       0.0018564113   1.0444321      738.23299     -6.3903153      731.84267    
    724000   296.8207       0.0018564113   1.2857362      736.42033     -6.8248195      729.59551    
[...]
   3823000   301.90511      0.0018564113   1.058478       749.03489     -4.1671335      744.86776    
   3824000   299.62323      0.0018564113   0.93212501     743.3735      -4.7776348      738.59587    
   3825000   297.61483      0.0018564113   1.1648909      738.39059     -3.3790851      735.0115     
   3826000   301.27567      0.0018564113   1.0014036      747.47323     -4.5949686      742.87826    
   3827000   306.15867      0.0018564113   0.77719541     759.58811     -3.8640829      755.72402    
   3828000   295.47347      0.0018564113   2.216552       733.07782     -4.8805928      728.19722    
   3829000   305.21073      0.0018564113   1.2113764      757.23623     -4.5403701      752.69586    
   3830000   290.87223      0.0018564113   0.15483999     721.66202     -3.5505384      718.11148    
   3831000   295.59236      0.0018564113   0.95610258     733.37279     -2.003836       731.36895    
   3832000   303.22339      0.0018564113   1.3986421      752.3056      -1.4248489      750.88075    
   3833000   308.44201      0.0018564113   1.0581016      765.25312     -1.510876       763.74225    
   3834000   300.8286       0.0018564113   1.0424841      746.36404     -1.2498822      745.11416    
   3835000   298.01579      0.0018564113   1.1429518      739.38539     -2.1493879      737.236      
   3836000   285.42063      0.0018564113   2.292552       708.13644     -1.2021686      706.93427    
   3837000   306.01813      0.0018564113   1.2195887      759.23941     -1.9008293      757.33858    
   3838000   316.8892       0.0018564113   0.94924729     786.21084     -1.3342298      784.87661    
   3839000   294.95677      0.0018564113   0.98817729     731.79589     -3.7991871      727.9967     
   3840000   290.88554      0.0018564113   1.254993       721.69503     -3.4118355      718.2832     
   3841000   305.12533      0.0018564113   1.2049315      757.02435     -3.8364262      753.18792    
   3842000   321.16585      0.0018564113   1.2303898      796.82132     -3.5252317      793.29609    
   3843000   303.52538      0.0018564113   0.9181247      753.05483     -2.8178387      750.23699    
   3844000   294.32973      0.0018564113   1.0354435      730.24017     -3.4490683      726.7911     
   3845000   286.49359      0.0018564113   1.4686355      710.79848     -1.5501107      709.24837    
   3846000   304.5586       0.0018564113   2.3113752      755.61828     -2.4539625      753.16432    
   3847000   310.12788      0.0018564113   0.55050412     769.43581     -0.056397953    769.37941    
   3848000   286.47761      0.0018564113   0.38086703     710.75884     -1.8474242      708.91142    
   3849000   297.35671      0.0018564113   1.5084747      737.75019     -3.3243404      734.42585    
   3850000   314.74346      0.0018564113   1.309437       780.88721     -3.2687762      777.61844    
   3851000   304.54836      0.0018564113   0.022292911    755.59289     -2.4438979      753.14899    
   3852000   281.8031       0.0018564113   0.55214573     699.16125     -3.7321471      695.4291     
   3853000   303.77338      0.0018564113   1.5855209      753.67014     -3.2285562      750.44158    
   3854000   307.41684      0.0018564113   1.0116403      762.70965     -3.2183213      759.49133    
   3855000   291.29089      0.0018564113  -0.18558585     722.70073     -1.6431502      721.05758    
   3856000   283.81581      0.0018564113   0.63445024     704.15486     -2.9639713      701.19089    
   3857000   297.74223      0.0018564113   3.5531087      738.70669     -3.6267284      735.07996    
   3858000   305.31342      0.0018564113   0.90629074     757.49102     -2.9035521      754.58746    
   3859000   296.43453      0.0018564113   0.22436253     735.46225     -2.7513955      732.71085    
   3860000   306.20368      0.0018564113   0.92272057     759.69976     -2.6870828      757.01268    
   3861000   299.35539      0.0018564113   0.9412441      742.70897     -4.8827062      737.82627    
   3862000   304.19926      0.0018564113   1.626647       754.72674     -2.5552073      752.17153    
   3863000   307.25861      0.0018564113  -0.75996853     762.31708     -2.7628961      759.55418    
   3864000   298.91543      0.0018564113   0.75101958     741.61742     -3.4265629      738.19085    
   3865000   301.70673      0.0018564113   1.3245386      748.54272     -2.8247157      745.718      
   3866000   319.13346      0.0018564113   1.3206143      791.77892     -3.5346753      788.24425    
   3867000   300.54376      0.0018564113   1.0637398      745.65734     -1.7876127      743.86973    
   3868000   297.37075      0.0018564113   0.79462493     737.78503     -2.3565221      735.42851    
   3869000   306.81828      0.0018564113   1.068844       761.22462     -1.4104154      759.8142     
   3870000   301.51166      0.0018564113   1.1493708      748.05874     -0.79129535     747.26744    
   3871000   295.9852       0.0018564113   1.0072708      734.34743     -0.94655214     733.40088    
   3872000   303.46358      0.0018564113   0.98644976     752.9015      -0.13216224     752.76934    
   3873000   305.11244      0.0018564113   0.99894544     756.99238      0.1266624      757.11904    
   3874000   278.83386      0.0018564113   0.61513528     691.79448     -3.1018712      688.69261    
   3875000   291.09586      0.0018564113   1.1037801      722.21684     -2.6070844      719.60976    
   3876000   298.59222      0.0018564113   1.2740044      740.81552     -2.8857009      737.92982    
   3877000   308.09553      0.0018564113   0.20666735     764.3935      -1.8257158      762.56779    
   3878000   298.08611      0.0018564113   0.82656489     739.55987     -1.2839988      738.27587    
   3879000   295.22456      0.0018564113   1.3756526      732.46027     -2.7101256      729.75015    
   3880000   299.6593       0.0018564113   1.5678195      743.46299     -2.1138815      741.34911    
   3881000   307.42064      0.0018564113   0.90173937     762.71907     -1.4726557      761.24642    
   3882000   301.17577      0.0018564113   0.55903791     747.22538     -2.4549944      744.77038    
   3883000   291.16275      0.0018564113   1.0743503      722.38281     -4.1938847      718.18893    
   3884000   293.40454      0.0018564113   1.3963942      727.94476     -3.5903772      724.35439    
   3885000   310.64067      0.0018564113   0.86997946     770.70807     -1.7519062      768.95617    
   3886000   302.77728      0.0018564113   0.56355471     751.19877     -3.2161017      747.98267    
   3887000   291.99725      0.0018564113   0.99419028     724.45324     -3.0778252      721.37541    
   3888000   297.07408      0.0018564113   1.769083       737.04897     -3.5162488      733.53273    
   3889000   298.98574      0.0018564113   1.3693298      741.79187     -3.0400344      738.75183    
   3890000   299.74017      0.0018564113  -1.0080989      743.66363     -3.0525666      740.61106    
   3891000   302.34522      0.0018564113  -0.27255184     750.12682     -2.7824032      747.34442    
   3892000   297.50415      0.0018564113   1.4717716      738.11601     -2.1897302      735.92628    
   3893000   300.94014      0.0018564113   1.6742129      746.64078     -3.4768043      743.16397    
   3894000   318.54478      0.0018564113   0.52400446     790.31838     -2.9619203      787.35646    
   3895000   312.49368      0.0018564113   0.20848578     775.30542     -2.6910758      772.61435    
   3896000   301.29011      0.0018564113   0.99137698     747.50907     -2.8844895      744.62458    
   3897000   295.97577      0.0018564113   1.7478937      734.32405     -2.3838225      731.94023    
   3898000   301.36229      0.0018564113   3.0493586      747.68816     -3.4619676      744.22619    
   3899000   326.88462      0.0018564113   0.94320585     811.00976     -3.3385105      807.67125    
   3900000   303.93588      0.0018564113   0.63494975     754.07329     -1.9937582      752.07953    
   3901000   295.04899      0.0018564113   0.62848105     732.02467     -1.1464684      730.8782     
   3902000   292.09199      0.0018564113   1.9236024      724.68828     -3.199884       721.4884     
   3903000   311.22602      0.0018564113   1.7668608      772.16034     -1.6435879      770.51676    
   3904000   306.81958      0.0018564113   0.0643388      761.22784     -1.5389114      759.68893    
   3905000   290.82348      0.0018564113   1.6553848      721.54107     -3.1086914      718.43238    
   3906000   299.28924      0.0018564113   1.2250057      742.54486     -2.1547615      740.3901     
   3907000   306.18737      0.0018564113   0.40254596     759.6593      -2.1988737      757.46042    
   3908000   304.4354       0.0018564113   0.85621781     755.31261     -1.6233448      753.68927    
   3909000   305.98319      0.0018564113   1.0286893      759.15274     -3.272017       755.88072    
   3910000   298.24353      0.0018564113   1.1724975      739.95041     -1.8658463      738.08456    
   3911000   297.50293      0.0018564113   1.6898451      738.11296     -3.0460933      735.06686    
   3912000   296.84321      0.0018564113   0.22408469     736.47618     -0.13447285     736.3417     
   3913000   297.4296       0.0018564113   0.68778014     737.93104     -1.9849789      735.94606    
   3914000   311.11782      0.0018564113   1.6778956      771.8919      -1.5282913      770.36361    
   3915000   296.52029      0.0018564113   1.1897488      735.67501     -1.5526109      734.12239    
   3916000   294.98488      0.0018564113   0.49812626     731.86562     -2.5390833      729.32653    
   3917000   302.38843      0.0018564113   0.98337905     750.23403     -2.1724499      748.06158    
   3918000   296.32995      0.0018564113   1.5619833      735.20277     -1.2877709      733.915      
   3919000   303.4631       0.0018564113   1.1282288      752.90033     -1.4470747      751.45325    
   3920000   300.80323      0.0018564113   1.0113746      746.30111     -0.63293103     745.66818    
   3921000   300.98079      0.0018564113   0.95052203     746.74164     -1.4762393      745.2654     
   3922000   301.53774      0.0018564113   1.112753       748.12344     -3.0771536      745.04629    
   3923000   306.61016      0.0018564113   0.96503889     760.70825     -3.2187847      757.48947    
   3924000   294.05785      0.0018564113   0.94153281     729.56563     -2.0818988      727.48373    
   3925000   292.45214      0.0018564113   0.89495861     725.58181     -2.8381532      722.74366    
   3926000   294.49372      0.0018564113   0.79020301     730.64703     -3.8792448      726.76778    
   3927000   308.46985      0.0018564113   1.173038       765.3222      -2.0792931      763.24291    
   3928000   292.09911      0.0018564113   1.2802619      724.70595     -3.9190805      720.78687    
   3929000   289.52038      0.0018564113   0.38527775     718.30803     -4.9795685      713.32847    
   3930000   291.77706      0.0018564113   0.63840675     723.90693     -3.6045922      720.30234    
   3931000   303.60252      0.0018564113   1.0514201      753.24621     -4.9655495      748.28066    
   3932000   305.95334      0.0018564113   2.0326082      759.07866     -3.7361531      755.3425     
   3933000   289.60012      0.0018564113   1.9054778      718.50589     -5.0223139      713.48358    
   3934000   292.92497      0.0018564113  -0.087914838    726.75492     -2.2856698      724.46925    
   3935000   309.56614      0.0018564113   0.030712574    768.04212     -2.2368243      765.80529    
   3936000   305.16285      0.0018564113   1.471347       757.11745     -2.8490321      754.26841    
   3937000   293.85143      0.0018564113   1.3617105      729.05349     -3.4277403      725.62575    
   3938000   288.40019      0.0018564113  -0.40269967     715.52882     -4.4671167      711.0617     
   3939000   313.13319      0.0018564113   0.6417004      776.89208     -5.0054058      771.88667    
   3940000   299.69596      0.0018564113   2.1946628      743.55394     -1.2919728      742.26197    
   3941000   291.75641      0.0018564113   2.0643663      723.85569     -3.1346221      720.72106    
   3942000   299.27785      0.0018564113   0.35975669     742.51661     -4.6884803      737.82813    
   3943000   297.93086      0.0018564113   0.64072415     739.17468     -3.8407175      735.33396    
   3944000   312.43712      0.0018564113   0.26864746     775.16511     -5.0378718      770.12724    
   3945000   313.29029      0.0018564113   1.2582286      777.28185     -4.3641111      772.91774    
   3946000   289.41879      0.0018564113   1.1421974      718.056       -3.8406153      714.21539    
   3947000   302.94875      0.0018564113  -1.7101553      751.62421     -3.6633138      747.96089    
   3948000   323.51573      0.0018564113  -0.13551869     802.65145     -1.0932062      801.55824    
   3949000   300.23123      0.0018564113   1.0995051      744.88195     -3.4978397      741.38411    
   3950000   291.2207       0.0018564113   2.5744983      722.52659     -4.1053348      718.42126    
   3951000   291.60759      0.0018564113   0.95730728     723.48647     -3.9171503      719.56932    
   3952000   298.99797      0.0018564113  -1.018032       741.8222      -2.8234321      738.99877    
   3953000   314.32262      0.0018564113   1.1481758      779.84308     -2.2900469      777.55303    
   3954000   310.3113       0.0018564113   2.7408599      769.89088     -3.5138596      766.37702    
   3955000   290.01722      0.0018564113   0.78433351     719.54072     -3.1561695      716.38455    
   3956000   289.90112      0.0018564113   0.50612658     719.25267     -4.1617971      715.09087    
   3957000   298.35391      0.0018564113   0.25197589     740.22427     -3.0128628      737.21141    
   3958000   311.93522      0.0018564113   1.0893395      773.91987     -1.4117511      772.50812    
   3959000   305.92221      0.0018564113   1.2653974      759.00144     -3.8921585      755.10928    
   3960000   289.96511      0.0018564113   1.1720921      719.41142     -3.1462927      716.26513    
   3961000   296.39198      0.0018564113   0.89629566     735.35666     -1.8673594      733.48931    
   3962000   309.82397      0.0018564113   0.77997742     768.68181     -3.6864881      764.99532    
   3963000   302.26429      0.0018564113   1.0438761      749.92602     -2.4330523      747.49297    
   3964000   292.99999      0.0018564113   1.5731228      726.94106     -5.2033573      721.73771    
   3965000   287.01875      0.0018564113   0.58862317     712.10142     -3.6028778      708.49854    
   3966000   320.34844      0.0018564113   0.88074716     794.79331     -3.8633041      790.93       
   3967000   309.07047      0.0018564113   2.3525106      766.81236     -3.7199181      763.09244    
   3968000   283.25799      0.0018564113   1.5655025      702.77088     -5.3255204      697.44536    
   3969000   296.3363       0.0018564113   0.51538843     735.21853     -3.6994091      731.51912    
   3970000   314.41799      0.0018564113   1.4814187      780.07971     -3.8366386      776.24307    
   3971000   297.92204      0.0018564113   1.5904904      739.1528      -2.8161088      736.33669    
   3972000   279.93611      0.0018564113   0.14477707     694.5292      -4.8091323      689.72007    
   3973000   298.36655      0.0018564113   0.29515878     740.25564     -5.5452638      734.71037    
   3974000   305.7748       0.0018564113   1.1975332      758.63571     -3.572453       755.06326    
   3975000   304.46506      0.0018564113   1.0966421      755.38621     -2.1882646      753.19795    
   3976000   290.81091      0.0018564113   0.25835681     721.50989     -2.0649305      719.44496    
   3977000   295.59645      0.0018564113   0.97325265     733.38293     -4.2551781      729.12775    
   3978000   301.92842      0.0018564113   1.0475412      749.09272     -3.7742871      745.31844    
   3979000   295.94652      0.0018564113   1.4067961      734.25147     -3.1809164      731.07056    
   3980000   296.63746      0.0018564113   0.77877764     735.96571     -2.6398794      733.32583    
   3981000   296.58937      0.0018564113   0.44965102     735.84639     -2.8519311      732.99446    
   3982000   303.27803      0.0018564113   1.9720864      752.44114     -1.6211451      750.82       
   3983000   302.84723      0.0018564113   1.0596806      751.37231     -2.3449449      749.02737    
   3984000   297.6186       0.0018564113   0.27799846     738.39996     -2.1605971      736.23936    
   3985000   302.68144      0.0018564113   0.76218255     750.961       -2.2459375      748.71506    
   3986000   321.07156      0.0018564113   1.5086564      796.58738     -2.9451702      793.64221    
   3987000   295.28815      0.0018564113   1.1236657      732.61804     -1.3843824      731.23365    
   3988000   287.86718      0.0018564113   1.1863018      714.20641     -2.7394987      711.46691    
   3989000   296.39202      0.0018564113   0.76079918     735.35677     -1.3557625      734.001      
   3990000   311.33629      0.0018564113   0.42410007     772.43391     -2.8355567      769.59835    
   3991000   317.88962      0.0018564113   1.8404775      788.6929      -2.4587364      786.23416    
   3992000   280.41521      0.0018564113   1.3380651      695.71788     -1.3570273      694.36085    
   3993000   292.42925      0.0018564113   0.76880181     725.52503     -2.0138839      723.51115    
   3994000   313.40788      0.0018564113   0.44030356     777.57359     -2.4165208      775.15707    
   3995000   305.57094      0.0018564113   2.1322144      758.12992     -1.6850136      756.44491    
   3996000   292.49473      0.0018564113   1.0403223      725.6875      -3.7392208      721.94828    
   3997000   299.15017      0.0018564113   0.33217412     742.19981     -1.1883284      741.01148    
   3998000   293.54577      0.0018564113   0.33094226     728.29515     -2.6216416      725.67351    
   3999000   305.38468      0.0018564113   0.47551804     757.66781     -3.269707       754.3981     
   4000000   315.30026      0.0018564113   1.277863       782.26864     -2.835163       779.43348    
Loop time of 30834.3 on 1 procs for 4000000 steps with 1500 atoms

Performance: 2.802 ns/day, 8.565 hours/ns, 129.726 timesteps/s, 194.588 katom-step/s
99.3% CPU use with 1 MPI tasks x 1 OpenMP threads

MPI task timing breakdown:
Section |  min time  |  avg time  |  max time  |%varavg| %total
---------------------------------------------------------------
Pair    | 1302.1     | 1302.1     | 1302.1     |   0.0 |  4.22
Bond    | 210.01     | 210.01     | 210.01     |   0.0 |  0.68
Kspace  | 28194      | 28194      | 28194      |   0.0 | 91.44
Neigh   | 0.049768   | 0.049768   | 0.049768   |   0.0 |  0.00
Comm    | 53.577     | 53.577     | 53.577     |   0.0 |  0.17
Output  | 0.16446    | 0.16446    | 0.16446    |   0.0 |  0.00
Modify  | 1037.2     | 1037.2     | 1037.2     |   0.0 |  3.36
Other   |            | 37.11      |            |       |  0.12

Nlocal:           1500 ave        1500 max        1500 min
Histogram: 1 0 0 0 0 0 0 0 0 0
Nghost:            528 ave         528 max         528 min
Histogram: 1 0 0 0 0 0 0 0 0 0
Neighs:              0 ave           0 max           0 min
Histogram: 1 0 0 0 0 0 0 0 0 0

Total # of neighbors = 0
Ave neighs/atom = 0
Ave special neighs/atom = 2
Neighbor list builds = 13812
Dangerous builds = 0
write_data	last_conf.data pair ij
System init for write_data ...
PPPM initialization ...
  using 12-bit tables for long-range coulomb (src/kspace.cpp:342)
  G vector (1/distance) = 0.13680404
  grid = 40 40 40
  stencil order = 5
  estimated absolute RMS force accuracy = 0.039167481
  estimated relative force accuracy = 0.00011795171
  using double precision FFTW3
  3d grid and FFT values/proc = 91125 64000
Generated 1 of 1 mixed pair_coeff terms from arithmetic mixing rule
Total wall time: 8:33:54
