LAMMPS data file via write_data, version 29 Aug 2024, timestep = 0, units = real

1500 atoms
2 atom types
1000 bonds
1 bond types
500 angles
1 angle types

0 216.5 xlo xhi
0 216.5 ylo yhi
0 216.5 zlo zhi

Masses

1 12.0107
2 15.9994

PairIJ Coeffs # lj/cut/coul/long/gpu

1 1 0.053649 2.8 12
1 2 0.0917684 2.925 12
2 2 0.156973 3.05 12

Bond Coeffs # harmonic

1 0 1.16

Angle Coeffs # harmonic

1 0 180

Atoms # full

1 1 1 0.7 15.950999358413275 61.44621685191347 21.56663010970998 0 0 0
2 1 2 -0.35 14.94333861417106 61.68390287754703 21.043442592913422 0 0 0
3 1 2 -0.35 16.95866010265549 61.20853082627991 22.089817626506537 0 0 0
4 2 1 0.7 49.3522538956498 51.83122418626734 147.88489859522548 0 0 0
5 2 2 -0.35 49.69957375177938 52.33179127707955 146.89778081849673 0 0 0
6 2 2 -0.35 49.00493403952022 51.33065709545513 148.87201637195423 0 0 0
7 3 1 0.7 81.4906899547161 35.026068913529656 19.640229692980753 0 0 0
8 3 2 -0.35 81.02808109976313 33.96230569869315 19.63929691230472 0 0 0
9 3 2 -0.35 81.95329880966908 36.08983212836616 19.641162473656788 0 0 0
10 4 1 0.7 147.34044992753326 23.941932051415524 135.0519881407041 0 0 0
11 4 2 -0.35 146.25539060977425 24.140975989566684 135.41063530384588 0 0 0
12 4 2 -0.35 148.42550924529226 23.742888113264364 134.69334097756234 0 0 0
13 5 1 0.7 32.764680813888404 116.49043902242111 45.3086498315952 0 0 0
14 5 2 -0.35 32.59202203884398 116.77541747194135 46.419764690963575 0 0 0
15 5 2 -0.35 32.93733958893283 116.20546057290088 44.19753497222682 0 0 0
16 6 1 0.7 71.9777196205583 144.033662723393 87.26939206652781 0 0 0
17 6 2 -0.35 70.89024543616888 144.20722236858327 86.90486916210615 0 0 0
18 6 2 -0.35 73.06519380494773 143.86010307820274 87.63391497094948 0 0 0
19 7 1 0.7 165.67246213283968 50.57106663685807 185.41696567363894 0 0 0
20 7 2 -0.35 164.65108953327453 50.8337427531054 184.93385153514708 0 0 0
21 7 2 -0.35 166.69383473240484 50.30839052061074 185.9000798121308 0 0 0
22 8 1 0.7 1.9420768499570324 165.48561722784567 157.76874840178934 0 0 0
23 8 2 -0.35 1.467183450227329 166.50304950966904 158.0601378504604 0 0 0
24 8 2 -0.35 2.416970249686736 164.4681849460223 157.47735895311828 0 0 0
25 9 1 0.7 143.85438887349068 105.21379675795967 172.78211102810786 0 0 0
26 9 2 -0.35 143.51363187044188 105.92581533311339 171.93210266726118 0 0 0
27 9 2 -0.35 144.19514587653947 104.50177818280595 173.63211938895455 0 0 0
28 10 1 0.7 34.44004940890709 129.4104155015249 41.85333412878836 0 0 0
29 10 2 -0.35 34.446628718881435 128.45087352730766 42.50512850771128 0 0 0
30 10 2 -0.35 34.43347009893275 130.36995747574215 41.20153974986545 0 0 0
31 11 1 0.7 20.486702546005464 85.00969071384039 74.37182751548096 0 0 0
32 11 2 -0.35 20.09229157445292 84.98051263499272 75.46232677051681 0 0 0
33 11 2 -0.35 20.88111351755801 85.03886879268805 73.28132826044511 0 0 0
34 12 1 0.7 112.80505268848736 24.02053540713179 157.13858766394603 0 0 0
35 12 2 -0.35 111.8857139098606 24.703943698413376 157.32126036995498 0 0 0
36 12 2 -0.35 113.72439146711413 23.3371271158502 156.95591495793707 0 0 0
37 13 1 0.7 161.24286794068425 78.3814790802456 171.5189016875899 0 0 0
38 13 2 -0.35 161.3278381175064 77.23063652223712 171.4008276611178 0 0 0
39 13 2 -0.35 161.1578977638621 79.53232163825407 171.636975714062 0 0 0
40 14 1 0.7 20.680663323346835 97.40847549024433 187.7475645364018 0 0 0
41 14 2 -0.35 19.979643917837777 97.06764354449983 188.60663693024281 0 0 0
42 14 2 -0.35 21.381682728855893 97.74930743598883 186.88849214256078 0 0 0
43 15 1 0.7 202.31716330503914 212.0636677926237 131.06459062665914 0 0 0
44 15 2 -0.35 201.53052622782533 212.0697827607839 130.21208566132643 0 0 0
45 15 2 -0.35 203.10380038225296 212.0575528244635 131.91709559199185 0 0 0
46 16 1 0.7 131.5746622602803 44.348608530987335 174.06358030418102 0 0 0
47 16 2 -0.35 130.42513495665938 44.19843320759179 174.02315320345517 0 0 0
48 16 2 -0.35 132.7241895639012 44.49878385438288 174.10400740490687 0 0 0
49 17 1 0.7 138.59417237019827 28.75502592220671 57.72067452814462 0 0 0
50 17 2 -0.35 137.62244590022098 29.32671469205065 57.993657344416604 0 0 0
51 17 2 -0.35 139.56589884017555 28.183337152362768 57.447691711872636 0 0 0
52 18 1 0.7 191.37679452652893 145.7856073718451 88.20309860059204 0 0 0
53 18 2 -0.35 190.56115598964047 146.40739282529003 87.66114230435893 0 0 0
54 18 2 -0.35 192.19243306341738 145.16382191840015 88.74505489682515 0 0 0
55 19 1 0.7 53.97818015049127 76.27378930676439 37.07687878914963 0 0 0
56 19 2 -0.35 53.79843951198328 76.58540790851899 35.974070034238224 0 0 0
57 19 2 -0.35 54.157920788999256 75.96217070500978 38.17968754406104 0 0 0
58 20 1 0.7 64.10180923789824 55.1078613556958 10.825805179460815 0 0 0
59 20 2 -0.35 65.02226836432912 55.04316947926626 11.528777410558266 0 0 0
60 20 2 -0.35 63.18135011146736 55.172553232125345 10.122832948363364 0 0 0
61 21 1 0.7 89.30765119791387 215.69368333844173 87.73586919029982 0 0 0
62 21 2 -0.35 90.11728786904293 214.96521285340796 88.13514254678348 0 0 0
63 21 2 -0.35 88.49801452678481 216.4221538234755 87.33659583381616 0 0 0
64 22 1 0.7 211.75348136911796 113.76137076563266 75.85845798806216 0 0 0
65 22 2 -0.35 210.82817635658816 113.0769973636992 75.7133935868011 0 0 0
66 22 2 -0.35 212.67878638164777 114.44574416756612 76.00352238932321 0 0 0
67 23 1 0.7 201.10340536064626 163.43389638184286 97.9964896328731 0 0 0
68 23 2 -0.35 201.86604410589274 164.03360792222804 97.36062155490586 0 0 0
69 23 2 -0.35 200.3407666153998 162.83418484145767 98.63235771084032 0 0 0
70 24 1 0.7 111.50125969806744 194.17174541958224 140.02526691859833 0 0 0
71 24 2 -0.35 110.68182198290751 194.91162223390555 140.38122215539119 0 0 0
72 24 2 -0.35 112.32069741322738 193.43186860525893 139.66931168180548 0 0 0
73 25 1 0.7 49.66110088218055 46.62252680846608 71.30806988934431 0 0 0
74 25 2 -0.35 48.61728021525236 46.13916054983395 71.15841871056655 0 0 0
75 25 2 -0.35 50.70492154910874 47.1058930670982 71.45772106812207 0 0 0
76 26 1 0.7 147.23063020977688 126.70193571979271 201.93364255592863 0 0 0
77 26 2 -0.35 146.1495640663595 126.99884404481469 201.6357475407147 0 0 0
78 26 2 -0.35 148.31169635319426 126.40502739477074 202.23153757114255 0 0 0
79 27 1 0.7 44.730437492360565 96.46293410400996 100.53348609550552 0 0 0
80 27 2 -0.35 43.88375287129648 96.38869753153695 99.74404700110937 0 0 0
81 27 2 -0.35 45.57712211342465 96.53717067648297 101.32292518990168 0 0 0
82 28 1 0.7 100.30080716139675 86.6659615950966 199.31652878868232 0 0 0
83 28 2 -0.35 99.47051043209296 87.22051390751294 199.90701932552534 0 0 0
84 28 2 -0.35 101.13110389070053 86.11140928268027 198.7260382518393 0 0 0
85 29 1 0.7 8.399351383745369 9.898706608404733 95.561967458372 0 0 0
86 29 2 -0.35 7.239978708903824 9.92350043258142 95.59095481964302 0 0 0
87 29 2 -0.35 9.558724058586915 9.873912784228047 95.53298009710097 0 0 0
88 30 1 0.7 112.98707285802209 52.233524777336754 197.85093269886025 0 0 0
89 30 2 -0.35 112.06724736868577 52.28255908936522 197.1458676625614 0 0 0
90 30 2 -0.35 113.9068983473584 52.184490465308286 198.5559977351591 0 0 0
91 31 1 0.7 57.12586974451592 153.49279607901946 155.9237000799848 0 0 0
92 31 2 -0.35 57.43804988614987 152.5072540666415 155.39753423064883 0 0 0
93 31 2 -0.35 56.813689602881965 154.4783380913974 156.44986592932077 0 0 0
94 32 1 0.7 93.62724430492486 71.0950328719779 30.717479332684295 0 0 0
95 32 2 -0.35 92.83587303046076 70.24757812380162 30.68353885910895 0 0 0
96 32 2 -0.35 94.41861557938896 71.9424876201542 30.75141980625964 0 0 0
97 33 1 0.7 132.6751444249764 137.6523505780624 4.0561654947494 0 0 0
98 33 2 -0.35 131.53401291288472 137.48898481643667 4.185511928947668 0 0 0
99 33 2 -0.35 133.81627593706807 137.81571633968812 3.9268190605511313 0 0 0
100 34 1 0.7 190.97347025315906 78.61454484407535 191.65519437457212 0 0 0
101 34 2 -0.35 189.97485262988107 78.56213722522152 191.06730298667406 0 0 0
102 34 2 -0.35 191.97208787643706 78.66695246292919 192.24308576247017 0 0 0
103 35 1 0.7 61.85185343346179 127.60065619233096 151.7286245062615 0 0 0
104 35 2 -0.35 60.70564187273593 127.77885828299526 151.72206150837454 0 0 0
105 35 2 -0.35 62.99806499418765 127.42245410166666 151.73518750414846 0 0 0
106 36 1 0.7 165.99207673687118 9.833716594070994 85.77479655122141 0 0 0
107 36 2 -0.35 165.0114439396147 9.278868400169753 86.05066390824186 0 0 0
108 36 2 -0.35 166.97270953412766 10.388564787972236 85.49892919420097 0 0 0
109 37 1 0.7 160.00563637842689 68.23061222035 167.89958742256258 0 0 0
110 37 2 -0.35 158.84642971512292 68.2280332160756 167.85677083128454 0 0 0
111 37 2 -0.35 161.16484304173085 68.23319122462439 167.94240401384062 0 0 0
112 38 1 0.7 27.36581100913035 91.18563045383694 169.8910376373171 0 0 0
113 38 2 -0.35 27.408799118108053 91.79491263854293 168.90486967906332 0 0 0
114 38 2 -0.35 27.322822900152648 90.57634826913095 170.8772055955709 0 0 0
115 39 1 0.7 156.6695703885842 72.4695209346104 182.7383479970686 0 0 0
116 39 2 -0.35 155.88098352418078 71.75494994271652 182.27669980327357 0 0 0
117 39 2 -0.35 157.4581572529876 73.18409192650428 183.1999961908636 0 0 0
118 40 1 0.7 14.414786731784599 5.820601103743819 185.34275062235199 0 0 0
119 40 2 -0.35 14.163108472293233 5.861181994655669 186.4743915746828 0 0 0
120 40 2 -0.35 14.666464991275964 5.780020212831968 184.21110967002116 0 0 0
121 41 1 0.7 53.60970987012131 161.89378712880136 193.3802737644316 0 0 0
122 41 2 -0.35 53.08867743938124 162.64650840280444 192.6678582327506 0 0 0
123 41 2 -0.35 54.13074230086137 161.14106585479828 194.09268929611258 0 0 0
124 42 1 0.7 44.26115880196968 3.2959847044181005 188.11492715501922 0 0 0
125 42 2 -0.35 43.11853847182797 3.129504221342688 188.22584617909453 0 0 0
126 42 2 -0.35 45.40377913211139 3.462465187493513 188.0040081309439 0 0 0
127 43 1 0.7 98.08069440796072 11.230914595877246 186.4816129088782 0 0 0
128 43 2 -0.35 99.18575397996823 11.28868090304524 186.13360946626483 0 0 0
129 43 2 -0.35 96.97563483595322 11.173148288709253 186.82961635149155 0 0 0
130 44 1 0.7 142.46815951562866 188.85697917098037 12.748926667379648 0 0 0
131 44 2 -0.35 141.84738065997425 189.73930097769596 12.32261476071211 0 0 0
132 44 2 -0.35 143.08893837128306 187.97465736426477 13.175238574047185 0 0 0
133 45 1 0.7 152.71049864972497 214.35080592792983 33.99523071688378 0 0 0
134 45 2 -0.35 151.58853406032415 214.11881261053745 34.17681970558054 0 0 0
135 45 2 -0.35 153.8324632391258 214.5827992453222 33.81364172818702 0 0 0
136 46 1 0.7 14.342658665656419 92.56419368743161 173.90330466297607 0 0 0
137 46 2 -0.35 14.034909793208174 92.22146454310182 174.967930120653 0 0 0
138 46 2 -0.35 14.650407538104664 92.9069228317614 172.83867920529914 0 0 0
139 47 1 0.7 42.841470639147545 174.09703215285998 51.319393117595176 0 0 0
140 47 2 -0.35 42.11786070139297 174.24529191292382 52.213824613870116 0 0 0
141 47 2 -0.35 43.56508057690212 173.94877239279614 50.424961621320236 0 0 0
142 48 1 0.7 205.54012742221363 38.92158514420576 108.58151866615822 0 0 0
143 48 2 -0.35 204.53007907491585 38.35660760965717 108.66027602502977 0 0 0
144 48 2 -0.35 206.5501757695114 39.486562678754346 108.50276130728666 0 0 0
145 49 1 0.7 51.08422212097059 150.0211871527234 47.09247582223847 0 0 0
146 49 2 -0.35 51.264393892186476 149.13045273617956 46.371552572480745 0 0 0
147 49 2 -0.35 50.9040503497547 150.91192156926724 47.813399071996194 0 0 0
148 50 1 0.7 175.74114436201805 188.4132924372858 133.20599346221704 0 0 0
149 50 2 -0.35 175.07135224662701 187.62067242203463 133.7243871674096 0 0 0
150 50 2 -0.35 176.41093647740908 189.20591245253698 132.6875997570245 0 0 0
151 51 1 0.7 183.13211948174614 137.53212970776116 148.50399834197202 0 0 0
152 51 2 -0.35 182.30820971508507 138.08706833381368 149.10301071055503 0 0 0
153 51 2 -0.35 183.95602924840722 136.97719108170864 147.90498597338902 0 0 0
154 52 1 0.7 94.70013352353132 133.64412999089998 185.89275705623103 0 0 0
155 52 2 -0.35 94.64898706422717 132.4852898407961 185.90133296480482 0 0 0
156 52 2 -0.35 94.75127998283547 134.80297014100387 185.88418114765724 0 0 0
157 53 1 0.7 204.56784407494956 151.75536767707922 182.46454867043744 0 0 0
158 53 2 -0.35 203.52817271352976 151.67752298460303 181.95599811828282 0 0 0
159 53 2 -0.35 205.60751543636937 151.8332123695554 182.97309922259205 0 0 0
160 54 1 0.7 175.66950404209527 66.85443549526597 203.99736893502873 0 0 0
161 54 2 -0.35 174.94929376690047 67.72390389084053 204.2636805356038 0 0 0
162 54 2 -0.35 176.38971431729007 65.98496709969142 203.73105733445365 0 0 0
163 55 1 0.7 89.77969102784046 138.76710491453628 120.73229861130578 0 0 0
164 55 2 -0.35 88.95644726629682 138.60018313405106 121.53230287896885 0 0 0
165 55 2 -0.35 90.6029347893841 138.9340266950215 119.93229434364271 0 0 0
166 56 1 0.7 109.74276021646465 83.0709581212471 181.59314380008408 0 0 0
167 56 2 -0.35 108.60370423089951 83.01607974512594 181.38068244928692 0 0 0
168 56 2 -0.35 110.88181620202978 83.12583649736827 181.80560515088123 0 0 0
169 57 1 0.7 35.46784801314019 83.62155684718003 126.005930554823 0 0 0
170 57 2 -0.35 34.35950593815541 83.6893123377055 125.67039063421433 0 0 0
171 57 2 -0.35 36.576190088124974 83.55380135665456 126.34147047543166 0 0 0
172 58 1 0.7 195.1748349099303 111.95033119826127 164.21644917722625 0 0 0
173 58 2 -0.35 195.5478827019207 110.94167654240387 164.6512492808466 0 0 0
174 58 2 -0.35 194.80178711793988 112.95898585411867 163.7816490736059 0 0 0
175 59 1 0.7 43.86132164176615 211.23283316368835 23.226982110052827 0 0 0
176 59 2 -0.35 43.60528458454529 210.17606872357547 22.822885656910074 0 0 0
177 59 2 -0.35 44.11735869898702 212.28959760380124 23.63107856319558 0 0 0
178 60 1 0.7 26.38832365786113 116.55571767201448 59.94691354732352 0 0 0
179 60 2 -0.35 25.368515930101143 116.29044997688946 59.461913291319384 0 0 0
180 60 2 -0.35 27.408131385621115 116.8209853671395 60.43191380332765 0 0 0
181 61 1 0.7 153.27598986624554 192.56168198867778 142.18918370766994 0 0 0
182 61 2 -0.35 152.20561445994588 192.85637084976807 142.52542017912734 0 0 0
183 61 2 -0.35 154.3463652725452 192.26699312758748 141.85294723621254 0 0 0
184 62 1 0.7 46.61057480848886 86.93080627239813 104.06102019527975 0 0 0
185 62 2 -0.35 47.17462760399162 87.74191738982714 104.66892084429125 0 0 0
186 62 2 -0.35 46.04652201298611 86.11969515496912 103.45311954626825 0 0 0
187 63 1 0.7 66.56642206668221 126.35567472798547 11.325153252028466 0 0 0
188 63 2 -0.35 65.50255326941709 126.78086413822827 11.143502081861419 0 0 0
189 63 2 -0.35 67.63029086394732 125.93048531774268 11.506804422195513 0 0 0
190 64 1 0.7 38.35070684242561 39.82990064720153 3.1401775160991483 0 0 0
191 64 2 -0.35 38.39095417209767 40.737040060220025 2.4183200247598102 0 0 0
192 64 2 -0.35 38.310459512753546 38.92276123418303 3.8620350074384864 0 0 0
193 65 1 0.7 167.46351307838387 59.26430839778125 155.231241509426 0 0 0
194 65 2 -0.35 167.7335213306658 58.65050207510551 156.1777811768161 0 0 0
195 65 2 -0.35 167.19350482610193 59.87811472045699 154.28470184203593 0 0 0
196 66 1 0.7 146.47604892331924 1.4542542262721128 193.65078095539977 0 0 0
197 66 2 -0.35 145.733241520748 1.681081785803539 192.7891624662049 0 0 0
198 66 2 -0.35 147.21885632589047 1.2274266667406866 194.51239944459462 0 0 0
199 67 1 0.7 44.17551740360238 79.42100234512286 106.28641447997019 0 0 0
200 67 2 -0.35 43.77929190229179 78.42965750486343 105.83271770920562 0 0 0
201 67 2 -0.35 44.571742904912966 80.41234718538229 106.74011125073476 0 0 0
202 68 1 0.7 14.268164859045372 139.54678597559538 18.331891831397957 0 0 0
203 68 2 -0.35 13.613466900393556 140.21248900544688 17.6435532090734 0 0 0
204 68 2 -0.35 14.922862817697188 138.88108294574388 19.020230453722515 0 0 0
205 69 1 0.7 24.60601030551177 38.21520473631807 143.94600329778436 0 0 0
206 69 2 -0.35 23.503641536413664 38.271414887374824 144.30268735382737 0 0 0
207 69 2 -0.35 25.708379074609876 38.15899458526132 143.58931924174135 0 0 0
208 70 1 0.7 129.47742586186035 85.59646028703845 193.7080442552492 0 0 0
209 70 2 -0.35 128.36365549301522 85.67457659273815 193.3933802943855 0 0 0
210 70 2 -0.35 130.5911962307055 85.51834398133876 194.0227082161129 0 0 0
211 71 1 0.7 140.5997979736886 179.80454378426288 67.9673821059835 0 0 0
212 71 2 -0.35 141.64311914427105 179.36546779178323 68.22094315946465 0 0 0
213 71 2 -0.35 139.55647680310614 180.24361977674252 67.71382105250235 0 0 0
214 72 1 0.7 73.79105526478544 94.26583524898898 195.39302975772557 0 0 0
215 72 2 -0.35 72.63381079587771 94.28411807511237 195.47081778669798 0 0 0
216 72 2 -0.35 74.94829973369318 94.24755242286558 195.31524172875316 0 0 0
217 73 1 0.7 98.65113809339289 72.67793565438033 5.064543170186012 0 0 0
218 73 2 -0.35 98.5992509528604 73.77191042692948 5.446808682197486 0 0 0
219 73 2 -0.35 98.70302523392537 71.58396088183119 4.682277658174539 0 0 0
220 74 1 0.7 35.27706131631371 124.56954328462925 85.31398476395476 0 0 0
221 74 2 -0.35 34.12771057111838 124.6651584976918 85.18968433937813 0 0 0
222 74 2 -0.35 36.42641206150905 124.47392807156669 85.4382851885314 0 0 0
223 75 1 0.7 209.1419277876345 170.88032677321712 113.15207745980102 0 0 0
224 75 2 -0.35 208.60463791876955 170.18800286641226 112.39207271976217 0 0 0
225 75 2 -0.35 209.67921765649945 171.57265068002198 113.91208219983987 0 0 0
226 76 1 0.7 10.965866875818868 61.82458188772416 102.24778697977206 0 0 0
227 76 2 -0.35 11.923281107744604 62.15325125731709 102.81429773341884 0 0 0
228 76 2 -0.35 10.008452643893133 61.49591251813123 101.68127622612528 0 0 0
229 77 1 0.7 118.05576902886655 157.31006816020704 12.315568599764056 0 0 0
230 77 2 -0.35 117.23623851022394 157.9155753819607 11.761194417990101 0 0 0
231 77 2 -0.35 118.87529954750916 156.70456093845337 12.869942781538011 0 0 0
232 78 1 0.7 13.761456234502354 66.7949332810449 69.94365452180787 0 0 0
233 78 2 -0.35 13.897408823048528 66.2876748655159 68.90934035602332 0 0 0
234 78 2 -0.35 13.625503645956181 67.30219169657391 70.97796868759242 0 0 0
235 79 1 0.7 164.50154802482646 72.5176532585256 125.6983160398427 0 0 0
236 79 2 -0.35 163.58861093573827 71.89383618410551 125.34760514889528 0 0 0
237 79 2 -0.35 165.41448511391465 73.14147033294569 126.0490269307901 0 0 0
238 80 1 0.7 4.597681636269056 199.23526077402533 158.0278290440458 0 0 0
239 80 2 -0.35 5.532790985200078 198.64214634307513 158.37335151414058 0 0 0
240 80 2 -0.35 3.6625722873380333 199.82837520497554 157.68230657395102 0 0 0
241 81 1 0.7 168.22274327777455 46.14626955666871 77.35243893105185 0 0 0
242 81 2 -0.35 167.4787395504537 46.9820568763904 77.65824607603886 0 0 0
243 81 2 -0.35 168.9667470050954 45.310482236947024 77.04663178606484 0 0 0
244 82 1 0.7 196.44111418837736 177.30616405783508 78.69932003421677 0 0 0
245 82 2 -0.35 196.71651303617912 176.26646635749916 79.13381303363757 0 0 0
246 82 2 -0.35 196.1657153405756 178.345861758171 78.26482703479597 0 0 0
247 83 1 0.7 100.97181508130012 106.29607141124833 176.57220885067815 0 0 0
248 83 2 -0.35 100.08853741958288 106.344695329024 175.82183808436895 0 0 0
249 83 2 -0.35 101.85509274301737 106.24744749347266 177.32257961698735 0 0 0
250 84 1 0.7 83.61415334772977 1.575315294356698 63.32415225302063 0 0 0
251 84 2 -0.35 84.76525975796194 1.4319800143092931 63.32114728777612 0 0 0
252 84 2 -0.35 82.4630469374976 1.7186505744041027 63.327157218265135 0 0 0
253 85 1 0.7 191.5269165176558 70.88591224089541 196.52703272901803 0 0 0
254 85 2 -0.35 192.43289413257523 70.20581243565995 196.27749552501112 0 0 0
255 85 2 -0.35 190.62093890273636 71.56601204613087 196.77656993302494 0 0 0
256 86 1 0.7 105.83907660601618 73.36051731387177 2.7144942428984185 0 0 0
257 86 2 -0.35 105.20372595036483 73.67565757350211 3.63243550524777 0 0 0
258 86 2 -0.35 106.47442726166753 73.04537705424143 1.796552980549067 0 0 0
259 87 1 0.7 157.50474039372276 36.67179729867345 183.8971988046063 0 0 0
260 87 2 -0.35 157.1913049628496 36.162758469945366 184.8913002589461 0 0 0
261 87 2 -0.35 157.8181758245959 37.18083612740153 182.90309735026648 0 0 0
262 88 1 0.7 6.220309018260012 191.7336698960204 81.78994241486767 0 0 0
263 88 2 -0.35 6.22495974475855 191.47481286548913 80.65920309544538 0 0 0
264 88 2 -0.35 6.215658291761473 191.99252692655165 82.92068173428996 0 0 0
265 89 1 0.7 85.06216668084365 90.33540493917438 169.15081270372067 0 0 0
266 89 2 -0.35 84.28607202073825 90.82806975930076 168.44331114643214 0 0 0
267 89 2 -0.35 85.83826134094905 89.842740119048 169.8583142610092 0 0 0
268 90 1 0.7 56.20911143334075 117.03586015805408 119.20167641514058 0 0 0
269 90 2 -0.35 56.96324930758137 116.26010545696063 119.62010288462744 0 0 0
270 90 2 -0.35 55.45497355910013 117.81161485914753 118.78324994565372 0 0 0
271 91 1 0.7 148.07550926789432 37.58426549988066 148.25025649426982 0 0 0
272 91 2 -0.35 147.06949127427805 37.38577311708118 147.7079202789099 0 0 0
273 91 2 -0.35 149.0815272615106 37.78275788268014 148.79259270962973 0 0 0
274 92 1 0.7 160.06089919296133 131.03273610143583 29.19565683216586 0 0 0
275 92 2 -0.35 159.17491950175926 130.74023869149363 29.88492111526388 0 0 0
276 92 2 -0.35 160.9468788841634 131.32523351137803 28.50639254906784 0 0 0
277 93 1 0.7 102.40437821154687 151.8846014681666 189.49687547632348 0 0 0
278 93 2 -0.35 101.245382188988 151.8374131522775 189.50694933041643 0 0 0
279 93 2 -0.35 103.56337423410574 151.93178978405572 189.48680162223053 0 0 0
280 94 1 0.7 158.98613056865807 36.8964674360568 62.92819780666763 0 0 0
281 94 2 -0.35 159.0755856269302 36.23417018832248 63.87633289630047 0 0 0
282 94 2 -0.35 158.89667551038593 37.558764683791125 61.9800627170348 0 0 0
283 95 1 0.7 31.720536662834014 104.05969225129098 44.24766744754634 0 0 0
284 95 2 -0.35 30.56964489301769 103.92099846646272 44.290237016713256 0 0 0
285 95 2 -0.35 32.87142843265034 104.19838603611925 44.205097878379426 0 0 0
286 96 1 0.7 209.5467909113722 47.414847432363246 181.34079572900237 0 0 0
287 96 2 -0.35 208.9286101311405 47.74997335136144 182.26336992188212 0 0 0
288 96 2 -0.35 210.1649716916039 47.07972151336505 180.41822153612262 0 0 0
289 97 1 0.7 124.25381734257277 191.4080766203851 22.04375881214801 0 0 0
290 97 2 -0.35 124.24581969408226 191.86954430677747 20.979529695822826 0 0 0
291 97 2 -0.35 124.26181499106329 190.9466089339927 23.107987928473193 0 0 0
292 98 1 0.7 57.9543557716321 5.357453820694915 195.22636441943533 0 0 0
293 98 2 -0.35 57.66290536357312 4.7736968804175115 196.18547051071002 0 0 0
294 98 2 -0.35 58.24580617969109 5.941210760972319 194.26725832816064 0 0 0
295 99 1 0.7 112.0067974494336 30.744732630785897 157.7213256185508 0 0 0
296 99 2 -0.35 110.9094958318554 30.46908083007346 157.46530756289022 0 0 0
297 99 2 -0.35 113.10409906701182 31.020384431498336 157.97734367421137 0 0 0
298 100 1 0.7 212.81967098327337 63.710215875743984 185.09822362922048 0 0 0
299 100 2 -0.35 212.55208046359218 64.82708939664278 184.9351627446041 0 0 0
300 100 2 -0.35 213.08726150295456 62.59334235484519 185.26128451383687 0 0 0
301 101 1 0.7 57.34453630882527 148.1217424262416 165.12495784304338 0 0 0
302 101 2 -0.35 56.47340020573285 148.02637445339778 164.36494018558756 0 0 0
303 101 2 -0.35 58.21567241191769 148.21711039908544 165.8849755004992 0 0 0
304 102 1 0.7 158.16646802968646 116.82817494046324 92.63622436562378 0 0 0
305 102 2 -0.35 159.26178846051332 117.21002396643952 92.62819472215652 0 0 0
306 102 2 -0.35 157.0711475988596 116.44632591448696 92.64425400909103 0 0 0
307 103 1 0.7 85.5229130387413 40.09944212487873 203.32379283677963 0 0 0
308 103 2 -0.35 84.49680985937805 39.55976360498535 203.28559126002776 0 0 0
309 103 2 -0.35 86.54901621810454 40.639120644772106 203.3619944135315 0 0 0
310 104 1 0.7 26.986207755276098 206.19374292539143 199.23734705347445 0 0 0
311 104 2 -0.35 25.826612897222503 206.2155830408276 199.21583485848183 0 0 0
312 104 2 -0.35 28.145802613329693 206.17190280995527 199.25885924846708 0 0 0
313 105 1 0.7 193.09192774495665 177.52960948647447 153.64663917647982 0 0 0
314 105 2 -0.35 192.2119845455254 178.17566823797722 153.25432800485527 0 0 0
315 105 2 -0.35 193.9718709443879 176.88355073497172 154.03895034810438 0 0 0
316 106 1 0.7 143.56463909664407 214.88929729694001 207.91966967094675 0 0 0
317 106 2 -0.35 142.43461002317824 214.8107234787533 207.66974878703047 0 0 0
318 106 2 -0.35 144.6946681701099 214.96787111512674 208.16959055486302 0 0 0
319 107 1 0.7 195.8881596018971 193.2984290841494 184.19761729878263 0 0 0
320 107 2 -0.35 196.58715211507422 192.3809510438495 184.32108191755984 0 0 0
321 107 2 -0.35 195.18916708871996 194.2159071244493 184.07415268000543 0 0 0
322 108 1 0.7 75.85394063957685 125.18032936806806 175.29568911986223 0 0 0
323 108 2 -0.35 77.00499344410768 125.22465595071942 175.4324831082249 0 0 0
324 108 2 -0.35 74.70288783504601 125.1360027854167 175.15889513149958 0 0 0
325 109 1 0.7 62.64703752479844 69.2596792873273 143.42978211000087 0 0 0
326 109 2 -0.35 61.49912986418164 69.36087675342525 143.29686455829074 0 0 0
327 109 2 -0.35 63.794945185415244 69.15848182122936 143.562699661711 0 0 0
328 110 1 0.7 113.34792278443831 55.0382380548577 139.66698799336655 0 0 0
329 110 2 -0.35 114.11916556201098 55.80345445495414 140.0734710053922 0 0 0
330 110 2 -0.35 112.57668000686564 54.27302165476126 139.2605049813409 0 0 0
331 111 1 0.7 90.06720451152287 208.0062251649826 135.1263478624757 0 0 0
332 111 2 -0.35 89.22835274473262 208.2989832269115 135.87214973330234 0 0 0
333 111 2 -0.35 90.90605627831313 207.7134671030537 134.3805459916491 0 0 0
334 112 1 0.7 200.02852462931932 67.41344496999562 73.26961071638839 0 0 0
335 112 2 -0.35 199.15329436980244 66.69862452563129 73.53153384470045 0 0 0
336 112 2 -0.35 200.9037548888362 68.12826541435996 73.00768758807632 0 0 0
337 113 1 0.7 206.8473103394952 142.24487589613761 116.62918638490568 0 0 0
338 113 2 -0.35 205.8551591685497 142.82163781059282 116.79824775845228 0 0 0
339 113 2 -0.35 207.8394615104407 141.6681139816824 116.46012501135908 0 0 0
340 114 1 0.7 212.23557110979945 205.74364239966667 211.8978111976282 0 0 0
341 114 2 -0.35 211.15291354047892 205.4812731236665 211.57436885252764 0 0 0
342 114 2 -0.35 213.31822867911998 206.00601167566683 212.22125354272873 0 0 0
343 115 1 0.7 158.01279853680768 132.10500812651824 81.37158239184487 0 0 0
344 115 2 -0.35 158.9264234178268 132.23935457244426 80.66955631736485 0 0 0
345 115 2 -0.35 157.09917365578855 131.97066168059223 82.07360846632488 0 0 0
346 116 1 0.7 198.18525973669497 47.16039463256504 18.25258952065026 0 0 0
347 116 2 -0.35 198.41433899920344 46.08536228679652 17.881876495467687 0 0 0
348 116 2 -0.35 197.9561804741865 48.23542697833356 18.623302545832836 0 0 0
349 117 1 0.7 207.27207356890293 136.74047255178004 49.62217776715857 0 0 0
350 117 2 -0.35 207.4625975310458 136.62879038668396 48.48339433127234 0 0 0
351 117 2 -0.35 207.08154960676006 136.85215471687613 50.76096120304479 0 0 0
352 118 1 0.7 41.941732634064614 207.20038072401675 14.298828549589416 0 0 0
353 118 2 -0.35 40.78714079716331 207.27317312327418 14.383792993748235 0 0 0
354 118 2 -0.35 43.09632447096592 207.12758832475933 14.213864105430597 0 0 0
355 119 1 0.7 5.411432949319218 19.9535792080935 1.3057504274443492 0 0 0
356 119 2 -0.35 6.408528673106338 20.38019550519141 1.7173311032005216 0 0 0
357 119 2 -0.35 4.4143372255320985 19.526962910995593 0.8941697516881769 0 0 0
358 120 1 0.7 79.24743405717771 3.624198985809553 75.4123545011563 0 0 0
359 120 2 -0.35 78.59538067147344 2.7397770755380924 75.78413974403634 0 0 0
360 120 2 -0.35 79.89948744288199 4.5086208960810135 75.04056925827626 0 0 0
361 121 1 0.7 64.44210093395883 145.39039704594313 157.40315116634739 0 0 0
362 121 2 -0.35 63.39676151038697 144.90961376953365 157.5505042479284 0 0 0
363 121 2 -0.35 65.48744035753067 145.87118032235261 157.25579808476638 0 0 0
364 122 1 0.7 61.2616528006092 167.0986198387568 205.00362998549994 0 0 0
365 122 2 -0.35 60.30850949658165 166.50837762775205 204.7057508584439 0 0 0
366 122 2 -0.35 62.21479610463675 167.68886204976155 205.30150911255598 0 0 0
367 123 1 0.7 115.00916629773992 47.05796611474732 28.736490558244515 0 0 0
368 123 2 -0.35 115.00017442206412 47.59234766231686 27.70694915170031 0 0 0
369 123 2 -0.35 115.01815817341573 46.523584567177785 29.76603196478872 0 0 0
370 124 1 0.7 179.19681241558717 29.326268773445054 132.59927529101225 0 0 0
371 124 2 -0.35 178.0447348876112 29.423408679323458 132.69351545346294 0 0 0
372 124 2 -0.35 180.34888994356314 29.22912886756665 132.50503512856156 0 0 0
373 125 1 0.7 161.51981604309742 186.54823633867701 179.708144144252 0 0 0
374 125 2 -0.35 160.64084654625918 186.92792883560713 179.0532806230486 0 0 0
375 125 2 -0.35 162.39878553993566 186.1685438417469 180.3630076654554 0 0 0
376 126 1 0.7 179.77863244352798 65.4754783748535 193.36504616256107 0 0 0
377 126 2 -0.35 179.13449980658694 64.5799223359298 193.72375569292606 0 0 0
378 126 2 -0.35 180.42276508046902 66.3710344137772 193.00633663219608 0 0 0
379 127 1 0.7 4.830854163892034 4.665932533408484 47.3280889963862 0 0 0
380 127 2 -0.35 4.480392033560889 5.615716314764722 47.89438138012132 0 0 0
381 127 2 -0.35 5.181316294223178 3.7161487520522463 46.76179661265108 0 0 0
382 128 1 0.7 22.191762262811775 163.94835107747855 84.43655918186371 0 0 0
383 128 2 -0.35 21.283323469195352 163.42433568851428 83.94083059646506 0 0 0
384 128 2 -0.35 23.100201056428197 164.47236646644282 84.93228776726237 0 0 0
385 129 1 0.7 184.25016958324713 93.10018563438216 89.31995706088838 0 0 0
386 129 2 -0.35 183.18966562329027 93.56499221755558 89.38985835668807 0 0 0
387 129 2 -0.35 185.310673543204 92.63537905120873 89.2500557650887 0 0 0
388 130 1 0.7 206.01832235116433 65.44375601897191 93.20741086090328 0 0 0
389 130 2 -0.35 204.9484830236736 65.21756054404158 92.82026822507609 0 0 0
390 130 2 -0.35 207.08816167865507 65.66995149390225 93.59455349673047 0 0 0
391 131 1 0.7 159.45433920154085 112.07896029696751 161.08571113300775 0 0 0