LAMMPS data file via write_data, version 29 Aug 2024, timestep = 4000000, units = real

1500 atoms
2 atom types
1000 bonds
1 bond types
500 angles
1 angle types

0 216.5 xlo xhi
0 216.5 ylo yhi
0 216.5 zlo zhi

Masses

1 12.0107
2 15.9994

PairIJ Coeffs # lj/cut/coul/long/gpu

1 1 0.053649 2.8 12
1 2 0.0917684 2.925 12
2 2 0.156973 3.05 12

Bond Coeffs # harmonic

1 0 1.16

Angle Coeffs # harmonic

1 0 180

Atoms # full

1460 487 2 -0.35 57.59274201307307 18.508319184457125 10.452746657989964 3 3 -1
1459 487 1 0.7 57.80900500666766 17.370151189282115 10.511089886904495 3 3 -1
1461 487 2 -0.35 58.02526800026225 16.231983194107105 10.569433115819026 3 3 -1
1376 459 2 -0.35 58.74774125267512 10.78226866992604 11.913656060034716 -5 6 -1
1377 459 2 -0.35 60.605896888358075 10.47047624023939 13.267333685754439 -5 6 -1
1375 459 1 0.7 59.67681907051659 10.626372455082715 12.590494872894578 -5 6 -1
446 149 2 -0.35 123.76652528713745 8.517606733217288 8.653766898882662 3 6 5
445 149 1 0.7 123.17542879695407 8.87687221305705 9.584966799166173 3 6 5
447 149 2 -0.35 122.58433230677066 9.236137692896811 10.516166699449684 3 6 5
481 161 1 0.7 141.6381499040424 18.19431884189593 12.034144681682811 -5 -8 1
483 161 2 -0.35 141.0359005453488 19.12110377296965 11.682057474461105 -5 -8 1
482 161 2 -0.35 142.240399262736 17.267533910822213 12.386231888904517 -5 -8 1
358 120 1 0.7 158.31186720400748 18.403398227082217 13.358651476624853 5 5 8
359 120 2 -0.35 157.29869502923657 17.839658290669256 13.394420574501465 5 5 8
360 120 2 -0.35 159.3250393787784 18.96713816349518 13.322882378748242 5 5 8
1425 475 2 -0.35 11.65469240364763 37.40793492873153 18.777646882476137 5 2 13
1423 475 1 0.7 11.134224280266972 37.45767065967048 17.742157003426797 5 2 13
1424 475 2 -0.35 10.613756156886314 37.507406390609425 16.706667124377457 5 2 13
666 222 2 -0.35 59.206729108704344 31.115900829819264 6.549003505634836 -2 2 6
664 222 1 0.7 60.12270184894296 30.407217528466486 6.61504832014088 -2 2 6
665 222 2 -0.35 61.03867458918157 29.698534227113704 6.681093134646923 -2 2 6
511 171 1 0.7 67.42692163902659 38.074626221983614 17.071612523054327 1 5 -5
512 171 2 -0.35 67.4020666649852 38.03258214258468 18.230583845241394 1 5 -5
513 171 2 -0.35 67.45177661306796 38.11667030138255 15.912641200867258 1 5 -5
486 162 2 -0.35 149.3917191126763 30.2221893518412 7.588357091767047 2 0 0
484 162 1 0.7 149.84958071055462 30.92600996207713 8.388731570242733 2 0 0
485 162 2 -0.35 150.30744230843294 31.629830572313065 9.18910604871842 2 0 0
965 322 2 -0.35 5.955120433551267 51.505671997139146 7.673428173925497 -8 -4 2
964 322 1 0.7 6.826609427978418 51.86634214726766 6.998132701261639 -8 -4 2
966 322 2 -0.35 7.698098422405571 52.22701229739618 6.322837228597781 -8 -4 2
1399 467 1 0.7 21.341059184222463 58.87115281501029 9.755065935673592 -4 1 -6
1401 467 2 -0.35 21.700570910285972 58.706363072577595 8.664563455340943 -4 1 -6
131 44 2 -0.35 27.448963739163027 57.90052969436447 2.569426112809987 -3 -2 -7
130 44 1 0.7 26.819472332851824 58.650101962400875 3.191906622038665 -3 -2 -7
1169 390 2 -0.35 43.52483100010484 43.55153089848012 19.769833013553573 1 -3 4
354 118 2 -0.35 194.59417339231592 44.57858544705958 14.293135856769519 0 -3 0
352 118 1 0.7 194.55929849760588 44.32073110991982 15.423575984568831 0 -3 0
353 118 2 -0.35 194.52442360289584 44.062876772780065 16.554016112368146 0 -3 0
862 288 1 0.7 4.883353288194785 74.00142465380705 10.386496392014603 1 -3 3
864 288 2 -0.35 3.8948538223142415 73.65741835548296 9.886367935851567 1 -3 3
863 288 2 -0.35 5.871852754075329 74.34543095213114 10.88662484817764 1 -3 3
1400 467 2 -0.35 20.98154745815895 59.035942557442986 10.845568416006241 -4 1 -6
132 44 2 -0.35 26.18998092654062 59.39967423043728 3.8143871312673427 -3 -2 -7
1102 368 1 0.7 111.34532698915783 73.98789741694478 7.038582086938467 1 -7 -5
1103 368 2 -0.35 110.82249512855597 74.99891430587624 7.2623938288868235 1 -7 -5
1104 368 2 -0.35 111.86815884975968 72.97688052801331 6.814770344990109 1 -7 -5
170 57 2 -0.35 137.11135432218268 61.33825917862643 9.521157906192595 -5 -2 -7
169 57 1 0.7 136.6734699230019 62.14063176024666 10.235339601012546 -5 -2 -7
171 57 2 -0.35 136.23558552382113 62.94300434186689 10.949521295832495 -5 -2 -7
1018 340 1 0.7 15.22273144046859 97.31959379185747 7.895304430102347 5 1 -5
1019 340 2 -0.35 14.637796142813515 96.39169562881649 8.272737465993533 5 1 -5
1020 340 2 -0.35 15.807666738123663 98.24749195489844 7.517871394211161 5 1 -5
19 7 1 0.7 37.35984919216576 92.45820095083947 12.573040663126205 -1 7 -2
21 7 2 -0.35 36.90062209756598 93.4058194522043 12.086491948756139 -1 7 -2
20 7 2 -0.35 37.819076286765544 91.51058244947464 13.05958937749627 -1 7 -2
989 330 2 -0.35 91.29767620773319 97.72788124985803 5.509243044311588 -1 -2 2
988 330 1 0.7 91.12389682880858 98.13182146498012 4.435821864127292 -1 -2 2
1445 482 2 -0.35 107.0945053894191 90.98917335231816 0.23158539663946875 1 -1 0
6 2 2 -0.35 140.7076340134988 93.91032463956682 11.433972316610822 -2 0 0
4 2 1 0.7 141.6326313320221 94.60974170924382 11.405763747518776 -2 0 0
5 2 2 -0.35 142.55762865054538 95.3091587789208 11.377555178426732 -2 0 0
819 273 2 -0.35 181.9038573929452 83.68930816133452 17.230972936305687 -1 -4 -9
818 273 2 -0.35 183.42079343844392 84.76506019354477 15.843867100741194 -1 -4 -9
817 273 1 0.7 182.66232541569457 84.22718417743965 16.53742001852344 -1 -4 -9
326 109 2 -0.35 183.03309682899874 93.04881291397147 13.194742891101757 2 -2 2
325 109 1 0.7 182.4596994352067 92.56966472609423 14.082004094382802 2 -2 2
327 109 2 -0.35 181.8863020414146 92.09051653821697 14.969265297663844 2 -2 2
494 165 2 -0.35 48.79358352241979 105.18038436722252 10.171027331424748 -1 2 -6
495 165 2 -0.35 48.78920366224118 103.07378885790806 9.199103375058552 -1 2 -6
493 165 1 0.7 48.79139359233048 104.12708661256528 9.68506535324165 -1 2 -6
1431 477 2 -0.35 56.96939494684704 117.114495555929 4.5381507013470905 7 5 1
1429 477 1 0.7 58.06434760780282 116.99929147464167 4.172901895843486 7 5 1
1430 477 2 -0.35 59.1593002687586 116.88408739335435 3.8076530903398806 7 5 1
990 330 2 -0.35 90.95011744988399 98.53576168010221 3.3624006839429965 -1 -2 2
87 29 2 -0.35 118.11033236117828 111.66203375588125 10.226528931229353 -7 4 -1
85 29 1 0.7 118.25769593564127 112.72713752611726 9.791284246539998 -7 4 -1
86 29 2 -0.35 118.40505951010425 113.79224129635327 9.356039561850643 -7 4 -1
1056 352 2 -0.35 151.80192551546747 114.97910727205281 9.012815758900706 2 -16 -5
1054 352 1 0.7 152.94568906151318 115.05672311751546 8.835669685644481 2 -16 -5
1055 352 2 -0.35 154.08945260755888 115.1343389629781 8.658523612388258 2 -16 -5
257 86 2 -0.35 159.58606236734897 113.34093979602146 5.70310732218586 0 1 -5
256 86 1 0.7 159.73550607335497 112.19689463535818 5.8232208064405055 0 1 -5
258 86 2 -0.35 159.88494977936097 111.0528494746949 5.943334290695151 0 1 -5
1133 378 2 -0.35 192.92106616726133 104.57462813461797 5.393585172033835 -3 14 -2
1134 378 2 -0.35 191.94315150420775 104.61530654121941 3.2901526965264596 -3 14 -2
1132 378 1 0.7 192.43210883573454 104.59496733791869 4.341868934280147 -3 14 -2
1044 348 2 -0.35 26.833708438507486 128.31141069422105 10.995080618137388 0 1 5
1042 348 1 0.7 27.17309669059068 129.41387772186994 11.117481873427582 0 1 5
1043 348 2 -0.35 27.512484942673872 130.5163447495188 11.239883128717779 0 1 5
1276 426 1 0.7 25.952335431846052 131.6587051199639 16.250138459717896 -5 1 4
1277 426 2 -0.35 26.646632805088224 130.97646918343926 16.881094309538643 -5 1 4
1278 426 2 -0.35 25.25803805860388 132.34094105648856 15.619182609897146 -5 1 4
462 154 2 -0.35 61.61158068158589 133.57997883814403 18.824462072403705 9 2 -5
608 203 2 -0.35 82.78323528999557 128.80966582390337 2.367616207411112 -2 -5 6
607 203 1 0.7 83.55564951602533 129.47105739067234 1.8094607999896757 -2 -5 6
609 203 2 -0.35 84.32806374205506 130.1324489574413 1.2513053925682396 -2 -5 6
1053 351 2 -0.35 155.674362075518 119.31624784953038 13.423741817059637 1 6 2
1051 351 1 0.7 156.7446527317379 119.05273932769445 13.785184993960407 1 6 2
1052 351 2 -0.35 157.81494338795775 118.78923080585852 14.146628170861177 1 6 2
419 140 2 -0.35 166.31234836236962 128.12233967975163 5.28028765252073 -1 0 4
418 140 1 0.7 165.198259501385 127.98933626760125 5.574763631486325 -1 0 4
420 140 2 -0.35 164.08417064040034 127.85633285545084 5.86923961045192 -1 0 4
1083 361 2 -0.35 186.15494178319457 136.01908550528518 12.200841745635097 0 3 4
1082 361 2 -0.35 185.7130316101571 135.66102177278506 9.95164060691269 0 3 4
1081 361 1 0.7 185.93398669667582 135.84005363903512 11.076241176273893 0 3 4
903 301 2 -0.35 206.62758171781473 123.03157831903468 12.007291498205342 0 -6 -1
901 301 1 0.7 206.12506303264917 123.90907994393233 12.575680334618989 0 -6 -1
902 301 2 -0.35 205.62254434748363 124.78658156882996 13.144069171032637 0 -6 -1
792 264 2 -0.35 51.222579606179515 151.77126517621906 8.459972539582626 -6 0 1
790 264 1 0.7 51.67804829899211 151.51547697748236 9.495694832118486 -6 0 1
791 264 2 -0.35 52.133516991804704 151.25968877874567 10.531417124654347 -6 0 1
520 174 1 0.7 70.96603612346968 153.52918890769746 1.2093750363273452 5 7 2
522 174 2 -0.35 71.39905117011102 154.4080102373158 0.5882703430654531 5 7 2
521 174 2 -0.35 70.53302107682833 152.65036757807914 1.8304797295892372 5 7 2
659 220 2 -0.35 113.4976105557093 143.87223646011367 6.682663826856839 1 -2 1
658 220 1 0.7 113.60730464687819 143.06734470226877 5.8545838400719346 1 -2 1
660 220 2 -0.35 113.7169987380471 142.26245294442387 5.026503853287031 1 -2 1
1202 401 2 -0.35 153.58727492297757 151.45131909218532 11.662080978031144 2 -1 -6
1201 401 1 0.7 153.313276651396 150.54964430606555 12.338474005231937 2 -1 -6
1203 401 2 -0.35 153.0392783798144 149.64796951994578 13.014867032432731 2 -1 -6
656 219 2 -0.35 174.59669966152134 140.72280568899973 19.952328436330568 -4 6 3
655 219 1 0.7 174.11831560227623 140.32498945362565 18.973302933734587 -4 6 3
657 219 2 -0.35 173.63993154303114 139.92717321825157 17.994277431138606 -4 6 3
54 18 2 -0.35 211.5471727246262 153.11071299477243 215.75606986850144 0 8 0
52 18 1 0.7 212.62209860884724 153.38091471376651 215.41383402221686 0 8 0
119 40 2 -0.35 37.41891897998837 162.37651634044536 4.59793187978612 0 -3 5
118 40 1 0.7 37.31155499337114 162.05065066421778 5.706031394916832 0 -3 5
120 40 2 -0.35 37.20419100675391 161.7247849879902 6.8141309100475445 0 -3 5
705 235 2 -0.35 100.93124107800882 156.9636414134594 10.748807747447593 4 4 -6
704 235 2 -0.35 100.16861220168819 159.11428402942224 10.329840522705423 4 4 -6
703 235 1 0.7 100.54992663984851 158.0389627214408 10.539324135076509 4 4 -6
44 15 2 -0.35 101.55948342833958 158.5442756993541 7.051391165808104 4 -7 -8
45 15 2 -0.35 101.57523884417847 158.7118970469961 4.737508098173653 4 -7 -8
43 15 1 0.7 101.56736113625902 158.6280863731751 5.894449631990878 4 -7 -8
543 181 2 -0.35 162.59177538681874 172.6730060702396 18.885516326076882 0 3 7
541 181 1 0.7 163.23762169284134 171.9474949319396 19.51964260466739 0 3 7
1440 480 2 -0.35 10.739985121158915 178.92439754161128 5.686415578955732 -1 1 -2
1438 480 1 0.7 10.508262430250618 177.82038937112767 5.956731235225387 -1 1 -2
1439 480 2 -0.35 10.276539739342319 176.71638120064407 6.227046891495042 -1 1 -2
774 258 2 -0.35 82.30577115350111 179.62308383266713 10.809109497936213 1 -5 -1
772 258 1 0.7 81.47186641423997 179.11183318598037 10.185550629744537 1 -5 -1
773 258 2 -0.35 80.63796167497883 178.6005825392936 9.561991761552862 1 -5 -1
173 58 2 -0.35 124.88109560523706 180.2048162145256 0.21342294702352527 -8 -5 9
172 58 1 0.7 124.58052750090697 180.92617054427177 1.070689968212016 -8 -5 9
174 58 2 -0.35 124.27995939657688 181.64752487401796 1.9279569894005066 -8 -5 9
143 48 2 -0.35 36.15446944551052 212.75457053104049 6.392440671854413 8 -5 0
142 48 1 0.7 35.57741128182974 213.44804524751987 5.663265320288457 8 -5 0
144 48 2 -0.35 35.00035311814896 214.14151996399926 4.9340899687225015 8 -5 0
75 25 2 -0.35 55.2796440202138 205.18071731357338 13.507335305646357 4 0 -1
73 25 1 0.7 54.68102272561171 205.93714257030655 14.151597190770767 4 0 -1
74 25 2 -0.35 54.08240143100962 206.69356782703971 14.795859075895176 4 0 -1
734 245 2 -0.35 49.52790426829777 201.38818565530192 10.593794939406653 2 -5 3
735 245 2 -0.35 50.624877710531734 200.9853200766338 8.589612165167074 2 -5 3
733 245 1 0.7 50.076390989414755 201.18675286596786 9.591703552286864 2 -5 3
183 61 2 -0.35 117.37176545028197 216.28922116934854 15.857090151679248 -1 -2 1
181 61 1 0.7 117.00538561606106 215.19573608430372 15.73196547042636 -1 -2 1
182 61 2 -0.35 116.63900578184014 214.1022509992589 15.606840789173473 -1 -2 1
448 150 1 0.7 154.18583061366277 204.24882844794692 16.402057718629276 -3 6 4
450 150 2 -0.35 155.34570676756618 204.26517070283046 16.406556419803778 -3 6 4
449 150 2 -0.35 153.02595445975936 204.23248619306335 16.397559017454775 -3 6 4
365 122 2 -0.35 2.2313234038900065 6.475613147242805 39.70284874406389 -3 6 3
1252 418 1 0.7 74.60390015018353 13.644209019679064 22.352911865506343 -4 -7 5
1254 418 2 -0.35 73.87299254831048 13.654164432922046 21.452203828863368 -4 -7 5
1253 418 2 -0.35 75.33480775205659 13.634253606436081 23.253619902149318 -4 -7 5
1236 412 2 -0.35 108.76943673023884 18.45159324007351 23.815010328016978 11 -2 17
1234 412 1 0.7 109.67229676007878 18.86228151268797 24.41649092558764 11 -2 17
536 179 2 -0.35 102.8176558201353 18.695621921835276 29.06139822312823 -11 0 3
535 179 1 0.7 103.82617398040814 19.248317061460618 29.213119029320794 -11 0 3
1235 412 2 -0.35 110.57515678991872 19.272969785302436 25.01797152315831 11 -2 17
1037 346 2 -0.35 139.2506706311087 17.49110818916304 21.74670424427074 0 4 10
147 49 2 -0.35 142.509805045918 4.330211590200281 37.68062927786936 -2 -5 2
146 49 2 -0.35 141.59223000347933 5.049030527436374 35.67469922500943 -2 -5 2
145 49 1 0.7 142.05101752469866 4.689621058818328 36.677664251439396 -2 -5 2
944 315 2 -0.35 152.48557453046857 12.011915638136461 21.181617748614745 6 0 1
943 315 1 0.7 152.2923884411036 10.868576847754772 21.149128592211156 6 0 1
945 315 2 -0.35 152.09920235173865 9.725238057373083 21.116639435807567 6 0 1
1036 346 1 0.7 139.02426058240297 18.29148870126437 22.555239664455186 0 4 10
919 307 1 0.7 176.47023573687292 18.44735230448996 30.79084664086654 -10 0 -5
921 307 2 -0.35 177.05591856147396 18.71981943283306 29.827344023880116 -10 0 -5
920 307 2 -0.35 175.88455291227191 18.174885176146866 31.75434925785297 -10 0 -5
537 179 2 -0.35 104.83469214068099 19.80101220108596 29.364839835513358 -11 0 3
1038 346 2 -0.35 138.79785053369721 19.0918692133657 23.363775084639634 0 4 10
233 78 2 -0.35 173.4452360285134 21.40115533656107 27.914856221307918 -2 5 -5
232 78 1 0.7 174.28935297137429 21.036924374899897 27.207464962284764 -2 5 -5
234 78 2 -0.35 175.13346991423518 20.672693413238722 26.50007370326161 -2 5 -5
572 191 2 -0.35 202.7586843638032 32.239849505105724 20.70464333166494 -4 -5 15
573 191 2 -0.35 200.90728389143592 33.598283119127 20.37392531400363 -4 -5 15
571 191 1 0.7 201.83298412761957 32.91906631211636 20.539284322834284 -4 -5 15
1168 390 1 0.7 44.17271663346276 42.65753881419569 20.125673370070377 1 -3 4
1170 390 2 -0.35 44.82060226682068 41.76354672991127 20.481513726587185 1 -3 4
1164 388 2 -0.35 71.59832407445222 54.64189784117429 19.98046088355304 3 -2 1
1162 388 1 0.7 72.12559735923378 54.09872096197482 20.85940443183088 3 -2 1
1163 388 2 -0.35 72.65287064401534 53.55554408277534 21.738347980108717 3 -2 1
414 138 2 -0.35 146.47464008547416 57.88732388068928 34.680890216520474 -4 2 2
413 138 2 -0.35 146.03985089363974 57.10969000654241 32.538778194135375 -4 2 2
412 138 1 0.7 146.25724548955694 57.498506943615844 33.60983420532792 -4 2 2
18 6 2 -0.35 169.76285407875633 47.44421589259938 22.58639944964273 1 15 -1
16 6 1 0.7 170.1481736114556 46.35922131240808 22.445276741773277 1 15 -1
17 6 2 -0.35 170.5334931441549 45.274226732216775 22.304154033903824 1 15 -1
471 157 2 -0.35 195.58718568373607 43.773534577336996 35.94967856453836 0 4 5
469 157 1 0.7 194.69036030566744 43.194677279120995 35.49555471628104 0 4 5
470 157 2 -0.35 193.7935349275988 42.615819980904995 35.041430868023724 0 4 5
638 213 2 -0.35 207.7494281218717 50.232569595086396 23.39673091487985 -7 -6 -2
639 213 2 -0.35 207.2363856273903 51.50714522850373 21.52733412619539 -7 -6 -2
637 213 1 0.7 207.492906874631 50.86985741179506 22.46203252053762 -7 -6 -2
786 262 2 -0.35 4.908008418749414 78.59005943654604 20.562009322920623 -7 -9 -3
1227 409 2 -0.35 75.95947556382075 65.08974311305973 37.707183336237584 -1 -2 -1
1225 409 1 0.7 76.83164802083925 65.05418193406086 36.94321304377364 -1 -2 -1
1226 409 2 -0.35 77.70382047785778 65.01862075506199 36.179242751309694 -1 -2 -1
1473 491 2 -0.35 112.44714496552562 72.18515412802955 30.399126981067578 7 1 -2
1471 491 1 0.7 112.67047032609038 71.06748659238372 30.614870029836343 7 1 -2
1472 491 2 -0.35 112.89379568665515 69.94981905673788 30.830613078605108 7 1 -2
784 262 1 0.7 4.270603454845227 79.45021259356758 20.115409436606182 -7 -9 -3
785 262 2 -0.35 3.633198490941039 80.31036575058913 19.66880955029174 -7 -9 -3
1116 372 2 -0.35 112.20468379443581 84.06618517166844 29.95133692091816 -6 -4 1
1114 372 1 0.7 111.16335009893854 84.12679439041779 29.44384243106992 -6 -4 1
1115 372 2 -0.35 110.12201640344126 84.18740360916713 28.936347941221687 -6 -4 1
166 56 1 0.7 164.7404584828055 84.59665817689717 22.3061423452608 1 5 2
168 56 2 -0.35 165.71105354466886 84.08749164894296 21.926280959095173 1 5 2
167 56 2 -0.35 163.7698634209422 85.10582470485137 22.686003731426425 1 5 2
1184 395 2 -0.35 7.851245840217726 106.6522921321767 40.8501913856761 -11 -2 4
800 267 2 -0.35 61.60370522503488 104.39084089718344 37.147105373638674 2 4 1
799 267 1 0.7 61.54194294493626 103.56287421706126 37.95720203291089 2 4 1
1337 446 2 -0.35 79.20600296207174 110.95301027088219 21.8537050486332 3 0 -1
1336 446 1 0.7 79.49859199742407 112.07433310025395 21.802453036759406 3 0 -1
1338 446 2 -0.35 79.79118103277641 113.19565592962572 21.751201024885614 3 0 -1
1437 479 2 -0.35 170.4813987033651 99.66824826753478 39.68841023242872 3 -3 -2
1266 422 2 -0.35 6.77390861552811 119.21897882631201 33.88599470156279 1 7 -5
1264 422 1 0.7 6.20954776970226 118.78712405614681 32.96915322497915 1 7 -5
1265 422 2 -0.35 5.645186923876409 118.3552692859816 32.05231174839551 1 7 -5
566 189 2 -0.35 32.354901410091614 120.98329522718034 23.512316083555163 3 1 3
565 189 1 0.7 33.085695712602984 120.53335256916323 22.731873073519978 3 1 3
567 189 2 -0.35 33.81649001511436 120.08340991114612 21.951430063484796 3 1 3
546 182 2 -0.35 29.53336892732724 126.07894707591164 29.184284042222746 -6 -2 7
544 182 1 0.7 29.589233309578542 127.23698247872646 29.146426722929245 -6 -2 7
545 182 2 -0.35 29.645097691829847 128.39501788154126 29.108569403635745 -6 -2 7
461 154 2 -0.35 60.905171560516045 133.50769641439777 21.033118090186846 9 2 -5
460 154 1 0.7 61.25837612105097 133.5438376262709 19.928790081295276 9 2 -5
379 127 1 0.7 95.6080986152564 134.6821976578052 20.068397203959755 3 -3 -3
380 127 2 -0.35 94.69008530681529 134.6343805724992 20.775903452608453 3 -3 -3
381 127 2 -0.35 96.5261119236975 134.7300147431112 19.360890955311053 3 -3 -3
594 198 2 -0.35 48.77986152366923 145.32012144709168 26.72514146902231 -5 9 3
593 198 2 -0.35 48.08828820850739 144.34625484373586 28.714038195506713 -5 9 3
592 198 1 0.7 48.43407486608832 144.83318814541377 27.719589832264514 -5 9 3
1415 472 2 -0.35 103.61437265240076 152.12908312093722 33.31988198657114 19 -4 1
1414 472 1 0.7 103.02436425286979 152.48509609769386 34.253019087356634 19 -4 1
1416 472 2 -0.35 102.43435585333881 152.8411090744505 35.18615618814213 19 -4 1
642 214 2 -0.35 127.73977718876887 149.47495837484036 26.24223838393539 4 -2 0
640 214 1 0.7 128.8710601631517 149.67677841891043 26.08391118576151 4 -2 0
641 214 2 -0.35 130.00234313753452 149.8785984629805 25.925583987587636 4 -2 0
782 261 2 -0.35 183.00454891157307 148.64002981816165 24.505905152836565 4 2 -4
781 261 1 0.7 182.38395940191288 147.9534325301103 25.20522827167249 4 2 -4
783 261 2 -0.35 181.76336989225268 147.26683524205893 25.904551390508413 4 2 -4
207 69 2 -0.35 6.43604703898583 157.9731319155444 30.658749364653747 -1 -8 2
205 69 1 0.7 7.015133797010307 158.09340761366872 31.656643288435628 -1 -8 2
206 69 2 -0.35 7.594220555034784 158.21368331179303 32.654537212217505 -1 -8 2
302 101 2 -0.35 118.25144891570964 161.66994345867204 18.467387604986513 -4 2 -3
301 101 1 0.7 117.35393248938375 162.35122919139516 18.74291258545691 -4 2 -3
303 101 2 -0.35 116.45641606305784 163.03251492411826 19.018437565927307 -4 2 -3
860 287 2 -0.35 144.47205451551528 163.23156430380328 23.8874803784189 6 4 3
861 287 2 -0.35 144.57666437897402 161.55717131575392 22.28502448260387 6 4 3
859 287 1 0.7 144.52435944724465 162.3943678097786 23.086252430511387 6 4 3
542 181 2 -0.35 163.88346799886395 171.22198379363957 20.153768883257893 0 3 7
1194 398 2 -0.35 30.68772918163829 186.96374975974095 30.76111132590257 -9 -9 2
1192 398 1 0.7 30.042413280432083 187.41323219409023 31.61383222330308 -9 -9 2
1193 398 2 -0.35 29.397097379225876 187.8627146284395 32.466553120703594 -9 -9 2
857 286 2 -0.35 54.739959108707666 191.77602970918872 23.631041410127743 6 1 0
858 286 2 -0.35 55.361531171360966 191.45150140254282 21.419542020773672 6 1 0
856 286 1 0.7 55.050745140034316 191.61376555586577 22.525291715450706 6 1 0
738 246 2 -0.35 104.27949446646886 189.61863594221532 34.03029268619793 -3 4 -5
736 246 1 0.7 103.57408065047153 188.7072787218293 34.162275128401156 -3 4 -5
737 246 2 -0.35 102.8686668344742 187.7959215014433 34.29425757060439 -3 4 -5
1450 484 1 0.7 137.14338254519362 191.19016845415126 23.38900634445655 2 0 2
1452 484 2 -0.35 136.88196462658524 192.19468124242212 23.906900860773952 2 0 2
1451 484 2 -0.35 137.40480046380202 190.18565566588043 22.87111182813915 2 0 2
458 153 2 -0.35 186.00130084699418 188.59791450213442 23.935539739340484 5 -1 -3
459 153 2 -0.35 188.21179015340516 188.05149339380694 23.491061394976327 5 -1 -3
457 153 1 0.7 187.10654550019967 188.32470394797068 23.713300567158406 5 -1 -3
582 194 2 -0.35 142.89137541268144 208.30173841682068 19.77899309410992 0 0 1
581 194 2 -0.35 141.48457127462524 208.6778786511146 21.585044212238945 0 0 1
580 194 1 0.7 142.18797334365334 208.48980853396765 20.682018653174435 0 0 1
833 278 2 -0.35 163.43052533605 204.9253683309148 35.49347620794489 2 5 -8
832 278 1 0.7 163.0242490334034 204.5260744443463 36.50397309465762 2 5 -8
834 278 2 -0.35 162.6179727307568 204.12678055777778 37.51446998137035 2 5 -8
366 122 2 -0.35 0.5210564778888337 5.724713137211626 41.07890696113287 -3 6 3
364 122 1 0.7 1.37618994088942 6.100163142227215 40.39087785259838 -3 6 3
1148 383 2 -0.35 4.068343735147271 16.816563460223207 52.779444851627474 -5 -3 5
1147 383 1 0.7 4.096081280651464 16.596043289766687 51.640936405022416 -5 -3 5
1149 383 2 -0.35 4.123818826155656 16.375523119310163 50.50242795841736 -5 -3 5
111 37 2 -0.35 30.559001763405025 7.424735012083511 45.8640377328853 -3 -5 1
109 37 1 0.7 31.44098843945545 7.514244063619945 45.115914993648516 -3 -5 1
110 37 2 -0.35 32.32297511550587 7.603753115156378 44.36779225441173 -3 -5 1
1128 376 2 -0.35 24.973682097187815 3.1862063307470643 51.450709185598654 2 -1 4
1126 376 1 0.7 24.3151606196035 2.4910509328143253 50.7959508818828 2 -1 4
1127 376 2 -0.35 23.65663914201918 1.795895534881586 50.141192578166944 2 -1 4
287 96 2 -0.35 55.430781785605554 13.203760659983427 48.71961219559296 1 0 5
286 96 1 0.7 54.601011225387 13.951387850777298 48.40634808820098 1 0 5
288 96 2 -0.35 53.77124066516844 14.699015041571169 48.093083980809 1 0 5
1196 399 2 -0.35 72.22502811555238 13.155492901123145 54.428617475806114 -3 -6 -2
1195 399 1 0.7 72.77734135908314 12.370662946410096 55.08022473727944 -3 -6 -2
1197 399 2 -0.35 73.32965460261391 11.58583299169705 55.73183199875277 -3 -6 -2
564 188 2 -0.35 113.23896041914179 14.265331899744323 45.310513968877984 5 1 1
562 188 1 0.7 114.38954296905203 14.16097471418234 45.206257680516295 5 1 1
563 188 2 -0.35 115.54012551896228 14.056617528620354 45.10200139215461 5 1 1
764 255 2 -0.35 118.17384066971348 12.591782064222421 58.47036017140528 3 -4 -1
56 19 2 -0.35 181.4528001611791 10.293640010089184 49.865829925144766 -7 -7 -3
57 19 2 -0.35 180.4684092538053 8.282142239554265 50.47184251627223 -7 -7 -3
55 19 1 0.7 180.96060470749222 9.287891124821725 50.1688362207085 -7 -7 -3
690 230 2 -0.35 42.09044303854325 33.08138815198964 55.5902748035051 1 6 -2
688 230 1 0.7 43.031721424015586 33.17395932933602 56.261859182542615 1 6 -2
689 230 2 -0.35 43.97299980948792 33.2665305066824 56.93344356158012 1 6 -2
1329 443 2 -0.35 135.19037838071642 28.28193605681639 46.78689405653135 -7 4 -7
1327 443 1 0.7 135.3912593859279 27.953755447020196 47.88121773310034 -7 4 -7
1328 443 2 -0.35 135.59214039113937 27.625574837224004 48.97554140966933 -7 4 -7
328 110 1 0.7 121.83126148720461 36.65976355268144 44.21213205884826 -1 -4 8
330 110 2 -0.35 122.07664594620563 35.896960776365944 43.37337202658243 -1 -4 8
329 110 2 -0.35 121.5858770282036 37.422566328996936 45.05089209111409 -1 -4 8
398 133 2 -0.35 167.13809987354156 30.14652913140225 41.94584628784638 -5 -1 0
397 133 1 0.7 166.9795543315476 31.292487670945658 42.03094820768334 -5 -1 0
399 133 2 -0.35 166.82100878955364 32.43844621048906 42.1160501275203 -5 -1 0
300 100 2 -0.35 101.69101335052363 42.970438304832214 54.471364199001016 1 -1 6
298 100 1 0.7 101.4605470563828 43.20367728489023 53.35867157952327 1 -1 6
299 100 2 -0.35 101.23008076224195 43.43691626494826 52.24597896004551 1 -1 6
415 139 1 0.7 134.72911148628256 58.05988055052243 48.52267859840114 -1 -1 0
417 139 2 -0.35 135.58082736623373 57.40071015310179 48.09177901961134 -1 -1 0
416 139 2 -0.35 133.8773956063314 58.71905094794307 48.953578177190956 -1 -1 0
579 193 2 -0.35 160.22825910855832 47.043681962028 42.956299822690625 -2 1 -6
577 193 1 0.7 159.65528753436882 46.94539865644328 43.96011453020116 -2 1 -6
578 193 2 -0.35 159.0823159601793 46.847115350858566 44.963929237711696 -2 1 -6
1181 394 2 -0.35 199.45265079359254 58.56030756515951 41.285050222082006 -2 1 5
947 316 2 -0.35 77.51297489302203 75.98971126465099 46.97820216283964 -3 6 -2
946 316 1 0.7 76.70090481387942 76.1117214024195 47.79750412966527 -3 6 -2
948 316 2 -0.35 75.88883473473679 76.23373154018799 48.616806096490905 -3 6 -2
621 207 2 -0.35 150.39872135998078 73.91070190630579 45.35851180605114 -2 -1 -3
620 207 2 -0.35 150.2500145989902 71.9586851928402 46.603468451717454 -2 -1 -3
619 207 1 0.7 150.3243679794855 72.934693549573 45.9809901288843 -2 -1 -3
1180 394 1 0.7 199.08128906206355 59.64632955121598 41.453117798246126 -2 1 5
1182 394 2 -0.35 198.70992733053455 60.73235153727244 41.621185374410246 -2 1 5
11 4 2 -0.35 21.335357629543243 98.12535475362557 55.996616100914366 0 -1 -2
731 244 2 -0.35 50.3507742647891 98.79044066798123 39.41556733206448 1 2 -10
1482 494 2 -0.35 66.57495790852585 92.22867039717673 54.636498112967686 -1 4 -4
1480 494 1 0.7 67.00479481687704 92.59486085721825 53.62321395776077 -1 4 -4
1481 494 2 -0.35 67.43463172522821 92.96105131725977 52.60992980255386 -1 4 -4
1339 447 1 0.7 156.71732857359018 96.88459571414472 54.54457098358209 -3 -3 -4
1341 447 2 -0.35 156.23660332180475 96.13360088858988 53.80260736972632 -3 -3 -4
896 299 2 -0.35 187.83342865540044 84.10815386816094 53.55299277142736 -6 6 0
897 299 2 -0.35 185.82616769216128 83.85140849496901 54.687622772260404 -6 6 0
895 299 1 0.7 186.82979817378086 83.97978118156497 54.12030777184388 -6 6 0
1183 395 1 0.7 7.042633982003418 107.14259839116869 41.522014751708866 -11 -2 4
1185 395 2 -0.35 6.234022123789108 107.63290465016068 42.19383811774163 -11 -2 4
10 4 1 0.7 21.549801570062936 99.02416172365601 56.69787199357921 0 -1 -2
12 4 2 -0.35 21.76424551058263 99.92296869368644 57.39912788624406 0 -1 -2
730 244 1 0.7 49.586812710614 99.62711035733858 39.16667664390439 1 2 -10
732 244 2 -0.35 48.822851156438894 100.46378004669592 38.91778595574429 1 2 -10
801 267 2 -0.35 61.48018066483764 102.73490753693908 38.767298692183104 2 4 1
981 327 2 -0.35 84.95583529359592 114.51951854515276 49.92295181305439 1 3 2
979 327 1 0.7 85.87424424501981 113.95725372845234 49.49169403185617 1 3 2
980 327 2 -0.35 86.79265319644368 113.39498891175191 49.06043625065796 1 3 2
1340 447 2 -0.35 157.19805382537558 97.63559053969955 55.28653459743787 -3 -3 -4
1436 479 2 -0.35 170.19734401628196 101.1185079273889 41.47683407865172 3 -3 -2
1435 479 1 0.7 170.33937135982353 100.39337809746185 40.58262215554022 3 -3 -2
231 77 2 -0.35 206.17245613183536 111.84330631770928 55.08359074047724 -3 -3 3
229 77 1 0.7 206.73354999483396 112.85765641116186 55.12680607129993 -3 -3 3
230 77 2 -0.35 207.2946438578326 113.87200650461443 55.17002140212262 -3 -3 3
84 28 2 -0.35 124.6217998854741 137.7137293733534 51.89078258225101 -4 -6 -5
83 28 2 -0.35 125.99039667909675 136.41082099323143 50.54476156848636 -4 -6 -5
82 28 1 0.7 125.30609828228542 137.06227518329243 51.217772075368686 -4 -6 -5
908 303 2 -0.35 196.77428152637228 120.49341380731782 56.1594419183178 4 -5 1
909 303 2 -0.35 196.1290406462812 122.3133968448064 54.87346915425457 4 -5 1
907 303 1 0.7 196.45166108632674 121.40340532606211 55.51645553628619 4 -5 1
1221 407 2 -0.35 34.39520266888605 139.93356016079318 47.72892969807993 3 2 -5
1219 407 1 0.7 33.60113858375903 139.59707237771926 46.95314738289513 3 2 -5
681 227 2 -0.35 31.642349375998002 152.87925607448403 45.964308367148305 -1 -1 1
679 227 1 0.7 30.70082666282054 153.33229508793306 46.46818397963858 -1 -1 1
1220 407 2 -0.35 32.80707449863201 139.26058459464534 46.177365067710326 3 2 -5
680 227 2 -0.35 29.759303949643073 153.7853341013821 46.97205959212886 -1 -1 1
711 237 2 -0.35 67.72521884357546 157.77165396358623 52.2151804792149 0 0 2
1136 379 2 -0.35 162.7275224513052 158.7054244722082 45.61326987757176 0 -3 1