LAMMPS (29 Aug 2024 - Update 1)
  using 1 OpenMP thread(s) per MPI task
package gpu 1 gpuID 0
# GCMC for CO2 molecular fluid, rigid/small/nvt dynamics
# Rigid CO2 TraPPE model
# [Potoff and J.I. Siepmann, Vapor-liquid equilibria of
# mixtures containing alkanes, carbon dioxide and
# nitrogen AIChE J., 47,1676-1682 (2001)].

# global model settings

units           real
atom_style      full
boundary        p p p
pair_style      lj/cut/coul/long  12
pair_modify     mix arithmetic shift yes
kspace_style    pppm 1.0e-4
bond_style      harmonic
angle_style     harmonic
neigh_modify    one 4000

# box, start molecules on simple cubic lattice
region          mbox block 0 ${lbox} 0 ${lbox} 0 ${lbox} units box
region          mbox block 0 216.5 0 ${lbox} 0 ${lbox} units box
region          mbox block 0 216.5 0 216.5 0 ${lbox} units box
region          mbox block 0 216.5 0 216.5 0 216.5 units box
create_box      2 mbox                                       bond/types 1                                angle/types 1                               extra/bond/per/atom 2                       extra/angle/per/atom 1                      extra/special/per/atom 2
Created orthogonal box = (0 0 0) to (216.5 216.5 216.5)
  1 by 1 by 1 MPI processor grid
molecule        co2mol ../CO2.txt
Read molecule template co2mol:
# CO2 molecule file. TraPPE model.
  1 molecules
  0 fragments
  3 atoms with max type 2
  2 bonds with max type 1
  1 angles with max type 1
  0 dihedrals with max type 0
  0 impropers with max type 0
create_atoms   	0 random ${nmols} 34578 mbox mol co2mol 464563 overlap 1.2
create_atoms   	0 random 500 34578 mbox mol co2mol 464563 overlap 1.2
Created 1500 atoms
  using lattice units in orthogonal box = (0 0 0) to (216.5 216.5 216.5)
  create_atoms CPU = 0.007 seconds

# rigid CO2 TraPPE model

pair_coeff      1   1  0.053649   2.800
pair_coeff      2   2  0.156973   3.050
bond_coeff      1       0       1.16
angle_coeff     1       0       180

# masses

mass 1 12.0107
mass 2 15.9994

write_data init_conf.data  pair ij
System init for write_data ...
PPPM initialization ...
  using 12-bit tables for long-range coulomb (src/kspace.cpp:342)
  G vector (1/distance) = 0.14605409
  grid = 36 36 36
  stencil order = 5
  estimated absolute RMS force accuracy = 0.037423921
  estimated relative force accuracy = 0.00011270103
  using double precision FFTW3
  3d grid and FFT values/proc = 68921 46656
Generated 1 of 1 mixed pair_coeff terms from arithmetic mixing rule

# MD settings

group           co2 type 1 2
1500 atoms in group co2
velocity       	all create 300 54654
timestep        0.25

# rigid constraints with thermostat
fix             myrigidnvt co2 rigid/nvt molecule temp 300 300 $(100*dt)
fix             myrigidnvt co2 rigid/nvt molecule temp 300 300 25
  500 rigid bodies with 1500 atoms

thermo 1000
thermo_style custom step temp density press ke pe etotal


variable    mvol equal vol
variable    mden equal density
variable	mtmp equal temp
variable    mpre equal press

fix mydat all ave/time 1 4000 4000 v_mtmp v_mden v_mpre file statistics.dat ## every 1ps

run 4000000 ## 1ns

CITE-CITE-CITE-CITE-CITE-CITE-CITE-CITE-CITE-CITE-CITE-CITE-CITE

Your simulation uses code contributions which should be cited:

- GPU package (short-range, long-range and three-body potentials): doi:10.1016/j.cpc.2010.12.021, doi:10.1016/j.cpc.2011.10.012, doi:10.1016/j.cpc.2013.08.002, doi:10.1016/j.commatsci.2014.10.068, doi:10.1016/j.cpc.2016.10.020, doi:10.3233/APC200086

@Article{Brown11,
 author = {W. M. Brown and P. Wang and S. J. Plimpton and A. N. Tharrington},
 title = {Implementing Molecular Dynamics on Hybrid High Performance Computers---Short Range Forces},
 journal = {Comput.\ Phys.\ Commun.},
 year =    2011,
 volume =  182,
 pages =   {898--911},
 doi =     {10.1016/j.cpc.2010.12.021}
}

@Article{Brown12,
 author = {W. M. Brown and A. Kohlmeyer and S. J. Plimpton and A. N. Tharrington},
 title = {Implementing Molecular Dynamics on Hybrid High Performance Computers - Particle-Particle Particle-Mesh},
 journal = {Comput.\ Phys.\ Commun.},
 year =    2012,
 volume =  183,
 doi =     {10.1016/j.cpc.2011.10.012},
 pages =   {449--459}
}

@Article{Brown13,
 author = {W. M. Brown and Y. Masako},
 title = {Implementing Molecular Dynamics on Hybrid High Performance Computers---Three-Body Potentials},
 journal = {Comput.\ Phys.\ Commun.},
 year =    2013,
 volume =  184,
 pages =   {2785--2793},
 doi =     {10.1016/j.cpc.2013.08.002},
}

@Article{Trung15,
 author = {T. D. Nguyen and S. J. Plimpton},
 title = {Accelerating Dissipative Particle Dynamics Simulations for Soft Matter Systems},
 journal = {Comput.\ Mater.\ Sci.},
 year =    2015,
 doi =     {10.1016/j.commatsci.2014.10.068},
 volume =  100,
 pages =   {173--180}
}

@Article{Trung17,
 author = {T. D. Nguyen},
 title = {{GPU}-Accelerated {T}ersoff Potentials for Massively Parallel
    Molecular Dynamics Simulations},
 journal = {Comput.\ Phys.\ Commun.},
 year =    2017,
 doi =     {10.1016/j.cpc.2016.10.020},
 volume =  212,
 pages =   {113--122}
}

@inproceedings{Nikolskiy19,
 author = {V. Nikolskiy and V. Stegailov},
 title = {{GPU} Acceleration of Four-Site Water Models in {LAMMPS}},
 booktitle = {Proceedings of the International Conference on Parallel
    Computing (ParCo 2019), Prague, Czech Republic},
 doi =     {10.3233/APC200086},
 year =    2019
}

CITE-CITE-CITE-CITE-CITE-CITE-CITE-CITE-CITE-CITE-CITE-CITE-CITE

PPPM initialization ...
  using 12-bit tables for long-range coulomb (src/kspace.cpp:342)
  G vector (1/distance) = 0.14605409
  grid = 36 36 36
  stencil order = 5
  estimated absolute RMS force accuracy = 0.037423921
  estimated relative force accuracy = 0.00011270103
  using double precision FFTW3
  3d grid and FFT values/proc = 68921 46656
Generated 1 of 1 mixed pair_coeff terms from arithmetic mixing rule
Per MPI rank memory allocation (min/avg/max) = 14 | 14 | 14 Mbytes
   Step          Temp         Density         Press          KinEng         PotEng         TotEng    
         0   306.91746      0.0036007403   22.168682      761.47069      1110.2215      1871.6922    
      1000   293.28044      0.0036007403   0.4098284      727.63686     -2.7653263      724.87154    
      2000   296.66397      0.0036007403   2.4015457      736.03149     -3.560434       732.47105    
      3000   309.65256      0.0036007403   3.1104401      768.25654     -2.8214672      765.43507    
      4000   300.21932      0.0036007403  -3.053895       744.85241     -3.507323       741.34509    
      5000   289.21761      0.0036007403   4.1850873      717.55686     -3.8778062      713.67906    
      6000   314.87305      0.0036007403   1.2689275      781.20872     -5.1065621      776.10216    
      7000   297.61727      0.0036007403   0.15493277     738.39666     -5.488594       732.90806    
      8000   296.40923      0.0036007403   0.58942687     735.39947     -8.09621        727.30326    
      9000   292.23788      0.0036007403   1.6981509      725.05025     -7.7180101      717.33224    
     10000   287.04595      0.0036007403   2.1742086      712.16892     -6.4087173      705.7602     
     11000   312.91609      0.0036007403   0.91538858     776.35343     -8.5922324      767.7612     
     12000   294.98006      0.0036007403  -0.18825391     731.85365     -8.0962464      723.7574     
     13000   301.44801      0.0036007403   2.7808311      747.90082     -7.8946997      740.00612    
     14000   302.20361      0.0036007403   3.5899333      749.77548     -7.7761208      741.99936    
     15000   304.23268      0.0036007403   1.8906888      754.80968     -8.5238168      746.28586    
     16000   300.99845      0.0036007403   0.81142219     746.78546     -8.6768991      738.10856    
     17000   298.27473      0.0036007403  -0.43325211     740.02782     -8.2372993      731.79052    
     18000   298.58264      0.0036007403   2.2211934      740.79177     -8.5025404      732.28923    
     19000   307.41681      0.0036007403   2.0542434      762.70957     -8.0973671      754.61221    
     20000   291.50371      0.0036007403   1.7674382      723.22873     -7.7267004      715.50203    
     21000   294.40374      0.0036007403   2.5888658      730.4238      -8.6105124      721.81329    
     22000   314.77372      0.0036007403   2.1013562      780.96227     -9.0666081      771.89567    
     23000   299.39741      0.0036007403   1.7008217      742.81323     -12.816536      729.99669    
     24000   288.23465      0.0036007403   1.1888616      715.11812     -12.605163      702.51295    
     25000   298.26396      0.0036007403   1.7135369      740.00111     -11.762807      728.2383     
     26000   296.86525      0.0036007403   2.0929914      736.53086     -11.198624      725.33224    
     27000   306.33535      0.0036007403   4.1564006      760.02646     -11.012063      749.0144     
     28000   299.99466      0.0036007403   2.224801       744.29503     -6.676153       737.61888    
     29000   301.47813      0.0036007403   0.41647823     747.97556     -8.4301746      739.54538    
     30000   305.23801      0.0036007403   3.7268531      757.30391     -8.5219017      748.78201    
     31000   300.87639      0.0036007403   2.3390293      746.48262     -6.2694739      740.21314    
     32000   290.80043      0.0036007403   1.9228833      721.48388     -8.60006        712.88382    
     33000   301.6061       0.0036007403   2.0293555      748.29304     -10.749949      737.5431     
     34000   307.19995      0.0036007403   1.5932967      762.17155     -7.6391961      754.53235    
     35000   291.08726      0.0036007403   2.1540909      722.1955      -8.9087587      713.28675    
     36000   299.31609      0.0036007403   3.79935        742.61146     -10.196214      732.41524    
     37000   280.01424      0.0036007403   2.7623652      694.72306     -10.853348      683.86971    
     38000   304.23114      0.0036007403   1.3872148      754.80585     -8.6814998      746.12435    
     39000   309.24071      0.0036007403   1.9927628      767.23473     -10.767442      756.46729    
     40000   296.65917      0.0036007403   2.0698496      736.01957     -6.2772861      729.74228    
     41000   296.86754      0.0036007403   1.8437276      736.53655     -4.9072826      731.62927    
     42000   318.43371      0.0036007403   2.3803312      790.04282     -6.0897845      783.95303    
     43000   301.62341      0.0036007403   1.991341       748.33599     -6.46416        741.87183    
     44000   300.0381       0.0036007403   2.5568878      744.40281     -9.9831257      734.41968    
     45000   296.53672      0.0036007403   2.1482727      735.71577     -9.5796514      726.13612    
     46000   301.1243       0.0036007403   0.8870916      747.09768     -10.73684       736.36084    
     47000   316.91658      0.0036007403   2.3917366      786.27878     -11.904102      774.37468    
     48000   301.96528      0.0036007403   1.9500792      749.18419     -11.188446      737.99575    
     49000   294.7813       0.0036007403   2.0112223      731.36053     -11.274895      720.08564    
     50000   308.34087      0.0036007403   1.9646345      765.00219     -10.33372       754.66847    
     51000   300.07325      0.0036007403   1.4626221      744.49        -9.4801665      735.00984    
     52000   293.27472      0.0036007403   2.6090643      727.62268     -8.4730618      719.14961    
     53000   310.75524      0.0036007403   2.0993391      770.99231     -9.2886913      761.70362    
     54000   302.44825      0.0036007403   1.3238139      750.38243     -9.3103948      741.07204    
     55000   283.59253      0.0036007403   1.0918394      703.60089     -10.539321      693.06157    
     56000   286.46074      0.0036007403   4.1926881      710.717       -9.7039004      701.0131     
     57000   305.86956      0.0036007403   2.047566       758.87081     -13.247046      745.62377    
     58000   301.9628       0.0036007403  -0.096283885    749.17804     -13.572795      735.60525    
     59000   288.94866      0.0036007403   0.36099455     716.88958     -10.905501      705.98408    
     60000   310.50605      0.0036007403   3.3972875      770.37406     -11.291246      759.08281    
     61000   307.9742       0.0036007403   1.8449243      764.09247     -10.709603      753.38287    
     62000   296.80969      0.0036007403   2.3096361      736.39302     -8.6984308      727.69459    
     63000   295.95586      0.0036007403   1.9061029      734.27464     -8.5445651      725.73008    
     64000   303.3678       0.0036007403   1.8655184      752.66388     -10.119408      742.54447    
     65000   297.71762      0.0036007403   1.8742871      738.64563     -11.712461      726.93316    
     66000   299.46816      0.0036007403   2.4904738      742.98876     -12.295943      730.69282    
     67000   292.78065      0.0036007403   3.3519225      726.39685     -12.25876       714.13809    
     68000   298.38402      0.0036007403   1.4572693      740.29899     -12.484106      727.81488    
     69000   302.23575      0.0036007403   1.8245581      749.85524     -10.397233      739.45801    
     70000   303.72781      0.0036007403   3.3077017      753.55708     -11.020372      742.53671    
     71000   290.91034      0.0036007403   2.059073       721.75657     -9.4952942      712.26128    
     72000   306.67013      0.0036007403   0.94147166     760.85704     -9.8083828      751.04866    
     73000   306.00849      0.0036007403   1.7228611      759.21549     -11.043803      748.17169    
     74000   295.8214       0.0036007403   1.9886511      733.94104     -11.012088      722.92895    
     75000   288.83657      0.0036007403   1.7292201      716.6115      -13.196624      703.41487    
     76000   310.70049      0.0036007403   3.0487951      770.85649     -13.92887       756.92762    
     77000   309.73766      0.0036007403   1.6736406      768.46767     -10.945208      757.52246    
     78000   286.03413      0.0036007403   1.6806545      709.65857     -9.6585707      700          
     79000   294.76538      0.0036007403   1.9176267      731.32104     -11.841928      719.47912    
     80000   307.62206      0.0036007403   2.0393845      763.2188      -12.364526      750.85427    
     81000   293.56297      0.0036007403   2.3782177      728.33782     -10.567849      717.76997    
     82000   292.84414      0.0036007403   2.1262437      726.55439     -9.2935006      717.26089    
     83000   302.11756      0.0036007403   2.5477041      749.56199     -9.5921375      739.96985    
     84000   305.19436      0.0036007403   2.0831687      757.19563     -8.8402671      748.35536    
     85000   280.52416      0.0036007403   1.7579467      695.98818     -9.5013711      686.48681    
     86000   303.04913      0.0036007403   2.4647901      751.87325     -13.25873       738.61452    
     87000   313.96857      0.0036007403   2.8597209      778.96467     -14.212784      764.75188    
     88000   301.13737      0.0036007403   0.73483215     747.13012     -16.563285      730.56683    
     89000   293.97859      0.0036007403   1.275078       729.36898     -16.836293      712.53269    
     90000   311.40733      0.0036007403   1.9088139      772.61017     -13.91144       758.69873    
     91000   307.33647      0.0036007403   2.8049904      762.51026     -14.65232       747.85794    
     92000   316.73925      0.0036007403   2.8931238      785.83881     -13.307956      772.53085    
     93000   294.88084      0.0036007403   3.7805668      731.6075      -12.274085      719.33341    
     94000   293.78878      0.0036007403  -0.15894977     728.89807     -13.77717       715.1209     
     95000   294.32793      0.0036007403  -1.4590398      730.2357      -14.749119      715.48658    
     96000   308.30021      0.0036007403   4.395941       764.90131     -13.325287      751.57603    
     97000   306.46858      0.0036007403   4.6945724      760.35699     -13.590961      746.76603    
     98000   279.17884      0.0036007403  -0.052966827    692.6504      -12.477383      680.17302    
     99000   301.57233      0.0036007403  -1.2504486      748.20926     -11.614738      736.59452    
    100000   301.43631      0.0036007403   1.2130809      747.8718      -13.012287      734.85951    
    101000   304.39627      0.0036007403   5.9910937      755.21553     -13.444051      741.77148    
    102000   299.34586      0.0036007403   3.6237888      742.68533     -12.115443      730.56989    
    103000   300.57232      0.0036007403   1.4267562      745.72822     -12.620352      733.10787    
    104000   291.95808      0.0036007403  -1.6481206      724.35606     -14.804571      709.55148    
    105000   299.52895      0.0036007403   1.9581197      743.13958     -16.404407      726.73517    
    106000   303.38709      0.0036007403   2.4385073      752.71173     -14.521509      738.19022    
    107000   304.38072      0.0036007403   2.0053039      755.17696     -16.111798      739.06516    
    108000   297.70131      0.0036007403   1.0398735      738.60516     -14.402779      724.20238    
    109000   303.87741      0.0036007403   1.9441384      753.92823     -12.974259      740.95397    
    110000   302.30624      0.0036007403   1.4502921      750.03011     -12.604291      737.42581    
    111000   321.44691      0.0036007403   1.9856031      797.51865     -13.368591      784.15006    
    112000   305.63648      0.0036007403   2.3441056      758.29252     -14.378973      743.91355    
    113000   292.24379      0.0036007403   1.866074       725.06489     -10.791428      714.27346    
    114000   306.22769      0.0036007403  -3.264818       759.75935     -10.115289      749.64406    
    115000   303.91745      0.0036007403   4.0972952      754.02757     -12.643564      741.384      
    116000   291.52314      0.0036007403   0.19193188     723.27694     -12.889531      710.38741    
    117000   294.46272      0.0036007403   0.91175758     730.57013     -14.232938      716.3372     
    118000   300.27598      0.0036007403   5.6808369      744.99299     -14.271576      730.72142    
    119000   298.41183      0.0036007403   2.3284348      740.36798     -15.138885      725.2291     
    120000   307.43088      0.0036007403  -2.7004924      762.74448     -17.905953      744.83853    
    121000   296.10587      0.0036007403   3.733128       734.64683     -13.331254      721.31558    
    122000   285.88163      0.0036007403   3.099463       709.2802      -13.263649      696.01655    
    123000   303.53667      0.0036007403   0.75268299     753.08284     -13.415568      739.66727    
    124000   303.66442      0.0036007403   1.7930626      753.3998      -12.842904      740.55689    
    125000   287.92346      0.0036007403   5.9519501      714.34604     -14.538886      699.80716    
    126000   286.93687      0.0036007403   3.941216       711.89829     -14.022293      697.876      
    127000   298.17789      0.0036007403   1.2790879      739.78757     -14.837099      724.95047    
    128000   308.84777      0.0036007403   1.6285134      766.25983     -12.696832      753.563      
    129000   304.78184      0.0036007403   0.85306259     756.17214     -15.31284       740.8593     
    130000   299.3986       0.0036007403   5.3318114      742.81618     -15.699868      727.11632    
    131000   292.89674      0.0036007403   1.2907337      726.6849      -12.160933      714.52396    
    132000   320.4478       0.0036007403   2.6373954      795.03983     -13.443114      781.59672    
    133000   299.95826      0.0036007403   2.9688083      744.2047      -13.107272      731.09743    
    134000   285.09455      0.0036007403   2.2619248      707.32743     -14.598518      692.72892    
    135000   297.93099      0.0036007403   1.6923045      739.175       -14.68392       724.49108    
    136000   308.19774      0.0036007403   1.7894324      764.64709     -14.810048      749.83704    
    137000   310.13094      0.0036007403   2.7250558      769.4434      -11.448998      757.99441    
    138000   293.60867      0.0036007403   2.3922199      728.4512      -12.384523      716.06667    
    139000   298.51932      0.0036007403   1.8745724      740.63466     -12.05909       728.57557    
    140000   324.02595      0.0036007403   2.0395072      803.9173      -10.83701       793.08029    
    141000   303.23014      0.0036007403   3.0288246      752.32234     -10.684643      741.6377     
    142000   291.8708       0.0036007403   3.8958099      724.1395      -12.683319      711.45618    
    143000   296.07605      0.0036007403   2.0497862      734.57285     -11.616334      722.95652    
    144000   305.07031      0.0036007403   1.6978653      756.88785     -12.196579      744.69128    
    145000   292.72809      0.0036007403   3.7480054      726.26647     -11.530478      714.73599    
    146000   295.30689      0.0036007403   1.543336       732.66453     -13.984189      718.68034    
    147000   302.46224      0.0036007403  -0.059845966    750.41716     -10.035118      740.38204    
    148000   304.26762      0.0036007403   0.69016811     754.89635     -9.230814       745.66553    
    149000   308.14135      0.0036007403   2.7529029      764.50718     -8.6895573      755.81762    
    150000   297.9603       0.0036007403   4.5772506      739.24772     -9.5835447      729.66418    
    151000   300.97504      0.0036007403   2.3088536      746.72738     -11.280933      735.44645    
    152000   274.06878      0.0036007403   4.913741       679.97221     -12.205427      667.76678    
    153000   297.78352      0.0036007403  -0.2094924      738.80913     -10.025266      728.78386    
    154000   308.63039      0.0036007403   2.7498276      765.72051     -10.951513      754.769      
    155000   301.14876      0.0036007403   5.8232358      747.15838     -11.862847      735.29554    
    156000   291.10514      0.0036007403   2.3660993      722.23988     -10.052736      712.18714    
    157000   301.96492      0.0036007403  -0.0040735699   749.18329     -11.420656      737.76263    
    158000   313.56234      0.0036007403   4.4123364      777.95681     -13.775383      764.18143    
    159000   295.02783      0.0036007403   2.2380742      731.97217     -12.59064       719.38153    
    160000   291.67019      0.0036007403  -1.401801       723.64179     -16.094822      707.54697    
    161000   294.2941       0.0036007403   2.2544906      730.15177     -16.815046      713.33672    
    162000   309.26095      0.0036007403   2.5363761      767.28495     -16.843899      750.44105    
    163000   291.73326      0.0036007403   0.82375649     723.79827     -15.862269      707.936      
    164000   287.01395      0.0036007403   0.19482687     712.08953     -14.329821      697.75971    
    165000   311.08365      0.0036007403   2.1652891      771.80712     -12.333811      759.47331    
    166000   302.3676       0.0036007403   5.8426017      750.18234     -14.040993      736.14135    
    167000   289.02535      0.0036007403   2.8282425      717.07986     -13.159581      703.92028    
    168000   292.13847      0.0036007403  -0.83356788     724.8036      -11.344942      713.45866    
    169000   309.39915      0.0036007403   0.56730872     767.62781     -15.033969      752.59384    
    170000   318.0085       0.0036007403   8.1706827      788.98785     -13.114557      775.87329    
    171000   305.86296      0.0036007403   3.2577165      758.85445     -14.81185       744.0426     
    172000   298.95074      0.0036007403   2.6096686      741.70502     -14.763958      726.94106    
    173000   287.63988      0.0036007403   1.6185602      713.64247     -13.522972      700.1195     
    174000   303.66328      0.0036007403   1.1742853      753.39698     -13.520175      739.8768     
    175000   312.60545      0.0036007403   2.3783887      775.58274     -15.848183      759.73456    
    176000   299.30293      0.0036007403   5.2337702      742.57882     -14.271075      728.30775    
    177000   301.09776      0.0036007403   0.16549052     747.03185     -14.048795      732.98306    
    178000   301.83382      0.0036007403   4.6525293      748.85803     -14.134426      734.72361    
    179000   286.25932      0.0036007403   4.4837233      710.21725     -13.556024      696.66123    
    180000   302.55405      0.0036007403   0.8874296      750.64495     -12.830218      737.81473    
    181000   295.44187      0.0036007403   1.5774986      732.99943     -15.455773      717.54366    
    182000   304.11235      0.0036007403   3.3623065      754.51112     -10.120522      744.3906     
    183000   290.23063      0.0036007403   2.9669594      720.07018     -14.909198      705.16099    
    184000   309.49584      0.0036007403   1.5306685      767.8677      -18.632262      749.23544    
    185000   315.33516      0.0036007403  -0.9517034      782.35522     -16.375139      765.98008    
    186000   296.62714      0.0036007403   2.436686       735.94011     -16.501147      719.43896    
    187000   288.12262      0.0036007403   0.54153262     714.84017     -16.890989      697.94918    
    188000   303.58216      0.0036007403   1.8873762      753.19572     -13.560843      739.63487    
    189000   315.65939      0.0036007403   2.6054719      783.15965     -13.505759      769.65389    
    190000   313.10656      0.0036007403   2.1764862      776.826       -13.769982      763.05602    
    191000   293.1678       0.0036007403   1.9630484      727.3574      -14.22055       713.13685    
    192000   297.74418      0.0036007403   1.9941574      738.71151     -13.770355      724.94116    
    193000   306.39418      0.0036007403   2.4272897      760.1724      -12.514398      747.65801    
    194000   308.67491      0.0036007403   2.0430751      765.83097     -13.186678      752.64429    
    195000   299.18697      0.0036007403   3.1920619      742.29113     -13.340447      728.95068    
    196000   295.4552       0.0036007403   0.89696545     733.03249     -13.361592      719.67089    
    197000   301.51273      0.0036007403   1.647905       748.06138     -13.097374      734.96401    
    198000   298.59851      0.0036007403   3.6960695      740.83114     -11.459022      729.37211    
    199000   307.78213      0.0036007403   1.7427678      763.61595     -12.538138      751.07781    
    200000   306.89821      0.0036007403   1.9691715      761.42291     -11.917224      749.50569    
    201000   309.17622      0.0036007403   2.8875404      767.07473     -11.635203      755.43953    
    202000   293.29578      0.0036007403   2.3440968      727.67491     -12.028951      715.64596    
    203000   298.47816      0.0036007403   1.8080058      740.53254     -14.436834      726.09571    
    204000   306.98875      0.0036007403   0.78406877     761.64754     -13.295847      748.35169    
    205000   305.59457      0.0036007403   3.4479544      758.18855     -11.740202      746.44835    
    206000   284.05417      0.0036007403   4.2510558      704.74623     -15.521528      689.2247     
    207000   297.67053      0.0036007403   1.4794915      738.52879     -15.524806      723.00399    
    208000   308.15301      0.0036007403   1.9414764      764.53611     -16.022704      748.51341    
    209000   296.1611       0.0036007403   1.9791317      734.78385     -15.538541      719.24531    
    210000   287.56822      0.0036007403   1.8063825      713.46469     -16.106872      697.35781    
    211000   301.20439      0.0036007403   1.6477172      747.29639     -14.865149      732.43124    
    212000   298.20259      0.0036007403   1.9304906      739.84886     -14.784252      725.0646     
    213000   303.69665      0.0036007403   2.0493056      753.47976     -14.860262      738.6195     
    214000   292.97305      0.0036007403   1.6156478      726.87422     -13.968317      712.9059     
    215000   298.054        0.0036007403   1.8154301      739.48018     -13.382492      726.09769    
    216000   300.3374       0.0036007403   2.1988607      745.14536     -17.212003      727.93335    
    217000   304.39422      0.0036007403   3.6704906      755.21046     -16.924626      738.28583    
    218000   299.12333      0.0036007403   1.5094461      742.13324     -16.205207      725.92803    
    219000   305.43612      0.0036007403   0.62768655     757.79543     -16.50625       741.28918    
    220000   298.45721      0.0036007403   1.9332758      740.48056     -15.336265      725.1443     
    221000   294.67614      0.0036007403   3.3796412      731.09963     -14.732676      716.36695    
    222000   295.70508      0.0036007403   1.371989       733.65245     -14.259813      719.39264    
    223000   288.73415      0.0036007403   1.259777       716.35739     -13.573923      702.78347    
    224000   293.37639      0.0036007403   1.3706773      727.87491     -13.519302      714.35561    
    225000   302.20805      0.0036007403   2.3495777      749.7865      -15.967484      733.81902    
    226000   302.27901      0.0036007403   2.7623528      749.96257     -14.736078      735.22649    
    227000   296.40442      0.0036007403   1.7512258      735.38755     -14.603656      720.78389    
    228000   286.26729      0.0036007403   0.25958954     710.23704     -5.7014663      704.53557    
    229000   299.00855      0.0036007403  -0.30527632     741.84844     -15.167872      726.68057    
    230000   307.19328      0.0036007403   5.0030551      762.155       -14.435321      747.71967    
    231000   290.37934      0.0036007403   0.78940305     720.43916     -13.196054      707.2431     
    232000   293.8445       0.0036007403   1.1297664      729.0363      -14.958556      714.07774    
    233000   309.73249      0.0036007403   2.0078921      768.45485     -13.27768       755.17717    
    234000   304.72378      0.0036007403   2.5631981      756.02811     -12.674455      743.35365    
    235000   296.24363      0.0036007403   2.2843777      734.98862     -12.391897      722.59672    
    236000   292.48514      0.0036007403   1.8611796      725.66369     -12.592062      713.07163    
    237000   299.70691      0.0036007403   1.112427       743.5811      -11.161133      732.41997    
    238000   308.93604      0.0036007403   3.3443633      766.47884     -11.996996      754.48185    
    239000   298.70802      0.0036007403   2.5039937      741.10283     -13.280675      727.82215    
    240000   287.74463      0.0036007403   1.4091042      713.90236     -12.687374      701.21498    
    241000   307.24762      0.0036007403   2.007028       762.28983     -11.436044      750.85378    
    242000   316.78429      0.0036007403   1.8308081      785.95056     -13.308746      772.64181    
    243000   293.19095      0.0036007403   2.0488442      727.41483     -9.1979761      718.21685    
    244000   288.67532      0.0036007403   2.6564082      716.21141     -13.425761      702.78565    
    245000   315.56264      0.0036007403   0.0047951105   782.91962     -11.287092      771.63253    
    246000   292.59485      0.0036007403   2.1325404      725.9359      -12.330811      713.60509    
    247000   298.85525      0.0036007403   2.3501411      741.46812     -13.581177      727.88694    
    248000   309.26886      0.0036007403   2.0774332      767.30457     -10.722876      756.58169    
    249000   295.55063      0.0036007403   0.48398579     733.26926     -11.792532      721.47673    
    250000   291.97562      0.0036007403   2.0342846      724.39957     -15.246897      709.15267    
    251000   292.76995      0.0036007403   1.6192358      726.37032     -13.867366      712.50296    
    252000   307.59558      0.0036007403   2.0265346      763.15312     -14.161826      748.9913     
    253000   308.59261      0.0036007403   2.1815908      765.62678     -15.212248      750.41453    
    254000   295.15551      0.0036007403   2.1411464      732.28895     -12.739914      719.54904    
    255000   291.98998      0.0036007403   1.6335558      724.4352      -13.258289      711.17691    
    256000   298.27671      0.0036007403   2.2996049      740.03275     -13.208591      726.82416    
    257000   303.52884      0.0036007403   1.7892423      753.06343     -12.241858      740.82157    
    258000   295.3597       0.0036007403   1.9035421      732.79556     -14.337101      718.45846    
    259000   296.92791      0.0036007403   1.7950107      736.68634     -17.13216       719.55418    
    260000   295.59824      0.0036007403   1.5535103      733.38737     -14.37933       719.00804    
    261000   306.04497      0.0036007403   2.1444104      759.30601     -13.428636      745.87737    
    262000   293.39275      0.0036007403   2.6222641      727.9155      -12.802064      715.11343    
    263000   293.70457      0.0036007403   1.8125241      728.68912     -13.38841       715.30071    
    264000   308.85127      0.0036007403   1.5548658      766.26852     -14.413323      751.85519    
    265000   299.49547      0.0036007403   2.9773817      743.05653     -11.839796      731.21673    
    266000   291.4492       0.0036007403   0.82354701     723.09349     -8.4845655      714.60892    
    267000   295.82029      0.0036007403   1.95096        733.93829     -11.485991      722.4523     
    268000   307.75138      0.0036007403   2.071239       763.53966     -11.448386      752.09128    
    269000   290.99186      0.0036007403   2.2634071      721.95882     -8.259859       713.69896    
    270000   296.21055      0.0036007403   1.925227       734.90653     -10.978261      723.92827    
    271000   299.02499      0.0036007403   2.103024       741.88924     -10.651203      731.23804    
    272000   305.33664      0.0036007403   2.0822745      757.54861     -9.4200533      748.12856    
    273000   298.29236      0.0036007403   2.5597237      740.07157     -8.6977864      731.37379    
    274000   300.47774      0.0036007403   1.7999071      745.49355     -8.9427582      736.55079    
    275000   297.91249      0.0036007403   1.193362       739.12911     -11.451095      727.67801    
    276000   301.57568      0.0036007403   2.4700886      748.21757     -12.821347      735.39623    
    277000   297.19302      0.0036007403   0.30229548     737.34408     -11.337036      726.00705    
    278000   301.85853      0.0036007403   2.2920109      748.91933     -11.938658      736.98067    
    279000   299.50969      0.0036007403   2.7865487      743.0918      -10.733012      732.35878    
    280000   303.55418      0.0036007403   4.4272703      753.12629     -10.495986      742.6303     
    281000   299.52039      0.0036007403   2.060873       743.11834     -12.873779      730.24456    
    282000   294.83156      0.0036007403   0.34796574     731.48523     -15.312671      716.17255    
    283000   299.1582       0.0036007403   1.3127666      742.21973     -15.412788      726.80694    
    284000   308.6461       0.0036007403   4.7955846      765.75949     -15.463882      750.29561    
    285000   301.28389      0.0036007403  -0.46478353     747.49364     -16.820867      730.67277    
    286000   303.44046      0.0036007403   2.8675366      752.84416     -14.690267      738.15389    
    287000   294.45971      0.0036007403   2.1867163      730.56265     -12.957307      717.60534    
    288000   285.97351      0.0036007403   1.081627       709.50817     -13.719166      695.789      
    289000   293.44978      0.0036007403   0.47024707     728.05699     -12.717478      715.33951    
    290000   314.90849      0.0036007403   2.1845177      781.29664     -14.630481      766.66616    
    291000   309.52787      0.0036007403   2.4634905      767.94717     -15.453727      752.49345    
    292000   294.54276      0.0036007403   2.0011105      730.7687      -14.918248      715.85045    
    293000   295.48685      0.0036007403   2.5439731      733.11101     -16.048652      717.06236    
    294000   308.34835      0.0036007403   2.0764509      765.02076     -14.336376      750.68438    
    295000   305.63682      0.0036007403   1.1017037      758.29337     -15.488126      742.80525    
    296000   286.96857      0.0036007403   1.6893189      711.97692     -15.297711      696.67921    
    297000   296.98155      0.0036007403   3.1261742      736.81941     -16.570124      720.24928    
    298000   308.19581      0.0036007403   3.1753271      764.6423      -4.5110482      760.13125    
    299000   299.30312      0.0036007403   0.01669508     742.5793      -12.588052      729.99125    
    300000   286.41152      0.0036007403   0.96942916     710.59488     -13.227639      697.36724    
    301000   308.70525      0.0036007403   7.4720672      765.90624     -16.703774      749.20246    
    302000   304.98951      0.0036007403   0.85762975     756.68739     -16.678595      740.0088     
    303000   303.3086       0.0036007403   1.9297236      752.517       -16.385594      736.13141    
    304000   300.7652       0.0036007403   1.8299241      746.20676     -13.635705      732.57105    
    305000   307.28649      0.0036007403   2.1161179      762.38626     -15.72223       746.66403    
    306000   294.12465      0.0036007403   1.544436       729.73137     -14.723794      715.00758    
    307000   286.98408      0.0036007403   2.1361205      712.01542     -16.688546      695.32687    
    308000   300.25658      0.0036007403   2.0898844      744.94485     -17.244365      727.70048    
    309000   303.20367      0.0036007403   0.13382732     752.25666     -18.212761      734.04389    
    310000   300.91552      0.0036007403   2.7901584      746.57971     -18.48501       728.0947     
    311000   312.40253      0.0036007403   4.0826571      775.07929     -21.130319      753.94897    
    312000   294.2474       0.0036007403   0.63675588     730.03591     -16.12335       713.91256    
    313000   311.15882      0.0036007403   1.8063195      771.99362     -17.207102      754.78652    
    314000   298.99182      0.0036007403   2.0983947      741.80696     -15.830895      725.97606    
    315000   300.45007      0.0036007403   1.2411795      745.4249      -16.939679      728.48522    
    316000   311.80045      0.0036007403   2.1576327      773.58551     -16.681562      756.90394    
    317000   310.34523      0.0036007403   1.9536146      769.97507     -15.088188      754.88688    
    318000   291.55247      0.0036007403   2.9144044      723.34971     -15.97118       707.37853    
    319000   290.68151      0.0036007403   1.6563594      721.18885     -16.057195      705.13165    
    320000   308.65909      0.0036007403   2.0290773      765.79171     -17.297238      748.49447    
    321000   295.20879      0.0036007403   1.4433648      732.42115     -16.31324       716.1079     
    322000   285.87894      0.0036007403   1.8322405      709.27353     -17.759878      691.51365    
    323000   299.41115      0.0036007403   2.4347086      742.84731     -17.706522      725.14079    
    324000   305.80622      0.0036007403   2.3808226      758.71366     -17.011472      741.70219    
    325000   296.68434      0.0036007403   1.2354373      736.08202     -16.653129      719.42889    
    326000   287.85504      0.0036007403   2.0043887      714.17628     -15.430377      698.74591    
    327000   302.94146      0.0036007403   2.0251271      751.60611     -14.922466      736.68364    
    328000   306.68738      0.0036007403   1.5346452      760.89985     -14.700608      746.19924    
    329000   289.07203      0.0036007403   1.9578446      717.19568     -13.887575      703.30811    
    330000   297.97601      0.0036007403   1.3525979      739.28668     -17.410453      721.87623    
    331000   318.39379      0.0036007403   2.270117       789.94377     -18.418633      771.52514    
    332000   283.85697      0.0036007403   1.9552826      704.25697     -16.345485      687.91149    
    333000   299.06106      0.0036007403   1.0701415      741.97873     -12.758566      729.22016    
    334000   298.97522      0.0036007403   2.1339913      741.76575     -14.237183      727.52857    
    335000   291.20422      0.0036007403   1.667757       722.48569     -11.576745      710.90894    
    336000   305.50756      0.0036007403   1.5126765      757.97267     -16.027869      741.9448     
    337000   298.92628      0.0036007403   2.7753258      741.64433     -15.346155      726.29818    
    338000   288.72203      0.0036007403   1.4768187      716.32733     -15.710145      700.61718    
    339000   311.39498      0.0036007403   1.7884989      772.57952     -15.560067      757.01946    
    340000   305.22209      0.0036007403   1.8514222      757.26442     -13.233603      744.03082    
    341000   318.00731      0.0036007403   1.9802947      788.9849      -16.768729      772.21617    
    342000   291.67926      0.0036007403   3.6246317      723.66428     -13.091846      710.57243    
    343000   291.87311      0.0036007403   2.5381565      724.14523     -13.471864      710.67337    
    344000   307.12941      0.0036007403   1.0757486      761.99654     -14.749543      747.247      
    345000   313.42224      0.0036007403   1.1665873      777.60922     -12.535378      765.07384    
    346000   294.49474      0.0036007403   2.5585492      730.64958     -11.847475      718.8021     
    347000   289.02665      0.0036007403   1.6167231      717.0831      -14.390676      702.69242    
    348000   305.14101      0.0036007403  -0.60498936     757.06325     -15.399585      741.66367    
    349000   298.49747      0.0036007403   2.4873673      740.58045     -18.041229      722.53922    
    350000   304.52601      0.0036007403   1.9634588      755.53741     -15.321304      740.21611    
    351000   293.87682      0.0036007403   1.6793325      729.1165      -15.649953      713.46655    
    352000   302.45765      0.0036007403   1.338627       750.40576     -17.027814      733.37795    
    353000   294.77452      0.0036007403   2.0018441      731.34371     -16.321339      715.02237    
    354000   307.70922      0.0036007403   3.5752347      763.43506     -15.785435      747.64963    
    355000   304.7133       0.0036007403   3.7103209      756.00209     -15.189743      740.81235    
    356000   292.10887      0.0036007403  -0.32579108     724.73017     -14.371619      710.35855    
    357000   297.55027      0.0036007403   1.7596092      738.23043     -14.198053      724.03237    
    358000   309.80428      0.0036007403   2.4380452      768.63295     -11.101602      757.53135    
    359000   293.65306      0.0036007403   3.202309       728.56132     -11.920021      716.6413     
    360000   294.79942      0.0036007403   0.9327251      731.40549     -11.539353      719.86613    
    361000   300.48209      0.0036007403   1.6889997      745.50434     -10.941872      734.56247    
    362000   305.49101      0.0036007403   3.1943367      757.93163     -12.069711      745.86192    
    363000   299.3479       0.0036007403   5.3057389      742.69039     -12.284508      730.40588    
    364000   290.39492      0.0036007403   1.5548084      720.4778      -13.030663      707.44713    
    365000   304.3565       0.0036007403  -0.16218137     755.11686     -14.314598      740.80226    
    366000   316.14396      0.0036007403   2.041438       784.36188     -14.287458      770.07442    
    367000   288.40561      0.0036007403   2.5382246      715.54226     -12.914548      702.62771    
    368000   287.02987      0.0036007403   1.6957088      712.12901     -12.23088       699.89813    
    369000   296.2691       0.0036007403   1.080727       735.05179     -11.064794      723.987      
    370000   304.32435      0.0036007403   2.2926945      755.0371      -13.06482       741.97228    
    371000   295.30927      0.0036007403   1.8817982      732.67043     -13.741052      718.92938    
    372000   297.50073      0.0036007403   2.2829037      738.10752     -12.325379      725.78214    
    373000   299.73395      0.0036007403   1.9552064      743.64819     -9.8774437      733.77074    
    374000   296.68949      0.0036007403   1.5565111      736.09481     -12.128225      723.96659    
    375000   303.19239      0.0036007403   2.1382787      752.22867     -12.661761      739.56691    
    376000   318.85331      0.0036007403   1.9802622      791.08385     -11.235843      779.84801    
    377000   294.18566      0.0036007403   1.4070735      729.88274     -12.935076      716.94767    
    378000   296.44191      0.0036007403   1.4078469      735.48054     -12.028264      723.45227    
    379000   305.37591      0.0036007403   2.1366227      757.64604     -12.520658      745.12538    
    380000   291.16131      0.0036007403   5.075339       722.37923     -14.399409      707.97982    
    381000   283.71031      0.0036007403   1.5070053      703.8931      -13.269516      690.62359    
    382000   308.41217      0.0036007403   0.031654732    765.17909     -12.233303      752.94579    
    383000   308.4784       0.0036007403   0.99296478     765.34343     -11.991081      753.35234    
    384000   297.00578      0.0036007403   3.2910407      736.87952     -13.383635      723.49589    
    385000   289.09692      0.0036007403  -1.6223873      717.25742     -13.153935      704.10349    
    386000   304.17623      0.0036007403   1.2657475      754.6696      -12.033575      742.63603    
    387000   309.76979      0.0036007403   2.5118257      768.54738     -11.738138      756.80924    
    388000   312.59392      0.0036007403   4.2067819      775.55414     -11.486975      764.06716    
    389000   288.27734      0.0036007403   1.9856762      715.22403     -14.380082      700.84395    
    390000   299.08212      0.0036007403  -0.97992928     742.03099     -11.51217       730.51882    
    391000   297.25295      0.0036007403  -0.25794793     737.49276     -11.882444      725.61031    
    392000   306.96418      0.0036007403   4.2384788      761.58659     -15.182114      746.40447    
    393000   299.64222      0.0036007403   1.4406462      743.42061     -14.397708      729.0229     
    394000   307.73608      0.0036007403   1.9315122      763.50169     -13.025353      750.47634    
    395000   299.01675      0.0036007403   2.195947       741.8688      -12.168626      729.70017    
    396000   301.018        0.0036007403   2.0939378      746.83395     -12.681599      734.15235    
    397000   278.83691      0.0036007403   1.8327671      691.80207     -14.286804      677.51526    
    398000   298.89454      0.0036007403   1.8439774      741.5656      -15.046666      726.51893    
    399000   312.3544       0.0036007403   1.6425708      774.95988     -14.118006      760.84187    
    400000   294.60008      0.0036007403   2.8859802      730.91093     -15.001071      715.90985    
    401000   289.04309      0.0036007403   1.348601       717.12386     -16.797015      700.32685    
    402000   298.54653      0.0036007403   1.3661137      740.70217     -14.328215      726.37395    
    403000   310.20648      0.0036007403   2.3868062      769.63083     -15.807594      753.82324    
    404000   290.16195      0.0036007403   3.4866643      719.8998      -16.79561       703.10419    
    405000   301.40346      0.0036007403   0.60923489     747.79029     -14.908178      732.88211    
    406000   301.31362      0.0036007403   1.66717        747.56739     -15.214202      732.35319    
    407000   296.14195      0.0036007403   2.824646       734.73634     -17.176528      717.55981    
    408000   300.37462      0.0036007403   3.1363837      745.23771     -17.035107      728.20261    
    409000   294.22882      0.0036007403  -3.0380007      729.98982     -17.392421      712.5974     
    410000   301.64969      0.0036007403  -1.206062       748.40119     -16.242439      732.15875    
    411000   304.64359      0.0036007403   3.2945931      755.82914     -15.495682      740.33346    
    412000   298.77416      0.0036007403   2.8569125      741.26693     -15.42802       725.83891    
    413000   279.91573      0.0036007403   0.29552786     694.47864     -15.898933      678.57971    
    414000   302.94599      0.0036007403   2.7213294      751.61735     -18.022493      733.59486    
    415000   301.03175      0.0036007403   3.7517809      746.86807     -20.02587       726.8422     
    416000   297.25669      0.0036007403   1.8412848      737.50203     -17.056032      720.446      
    417000   296.328        0.0036007403  -0.10500604     735.19795     -15.412536      719.78541    
    418000   305.87407      0.0036007403   2.85669        758.882       -14.690292      744.19171    
    419000   308.80807      0.0036007403   3.4650786      766.16133     -13.5441        752.61723    
    420000   293.08553      0.0036007403   1.9562978      727.15329     -14.890985      712.2623     
    421000   289.32159      0.0036007403   1.9651728      717.81485     -16.91856       700.89629    
    422000   311.86062      0.0036007403   1.6601441      773.73479     -17.550043      756.18475    
    423000   316.22626      0.0036007403   1.9064544      784.56607     -16.172179      768.39389    
    424000   296.33913      0.0036007403   1.8369908      735.22555     -13.282147      721.9434     
    425000   294.99184      0.0036007403   2.3842624      731.88288     -13.363208      718.51967    
    426000   305.35406      0.0036007403   2.3166245      757.59183     -14.605528      742.98631    
    427000   311.2696       0.0036007403   2.2128389      772.26846     -13.857307      758.41115    
    428000   290.21913      0.0036007403  -1.5433731      720.04167     -14.674548      705.36712    
    429000   283.86352      0.0036007403   2.9844176      704.27323     -15.82259       688.45064    
    430000   301.55192      0.0036007403   2.1812789      748.15863     -16.979635      731.179      
    431000   312.64435      0.0036007403   1.753899       775.67926     -14.25905       761.42021    
    432000   288.53783      0.0036007403   0.65386233     715.87031     -15.902371      699.96794    
    433000   295.91553      0.0036007403   3.8721905      734.1746      -13.04765       721.12695    
    434000   305.23315      0.0036007403   0.4481748      757.29186     -13.127264      744.1646     
    435000   300.83911      0.0036007403   0.61655974     746.39013     -14.388395      732.00173    
    436000   295.76888      0.0036007403   2.6422064      733.81075     -13.40261       720.40814    
    437000   294.60364      0.0036007403   3.1227996      730.91975     -12.21684       718.70291    
    438000   306.17485      0.0036007403   3.608236       759.62824     -13.705243      745.92299    
    439000   307.3705       0.0036007403  -1.8973368      762.59467     -11.890744      750.70393    
    440000   298.61389      0.0036007403   1.8296899      740.86928     -12.662686      728.20659    
    441000   288.66773      0.0036007403   2.0491716      716.19259     -11.473028      704.71957    
    442000   296.61321      0.0036007403   2.0887745      735.90556     -12.122113      723.78344    
    443000   308.90902      0.0036007403   2.4002903      766.41179     -11.220627      755.19116    
    444000   298.81143      0.0036007403   1.7149862      741.35939     -11.306663      730.05273    
    445000   280.95985      0.0036007403   1.3509651      697.06914     -11.706952      685.36219    
    446000   308.86729      0.0036007403   3.0712818      766.30826     -13.023429      753.28483    
    447000   314.63145      0.0036007403   1.0671229      780.60929     -13.143299      767.46599    
    448000   297.89329      0.0036007403   1.0676949      739.08147     -12.061765      727.0197     
    449000   306.16593      0.0036007403   1.4543904      759.60611     -11.209367      748.39674    
    450000   286.81489      0.0036007403   2.2111391      711.59565     -11.614764      699.98089    
    451000   307.64888      0.0036007403   2.1944894      763.28535     -11.866276      751.41907    
    452000   294.65746      0.0036007403   1.1408532      731.05328     -12.097276      718.956      
    453000   289.228        0.0036007403   1.7306176      717.58264     -11.689566      705.89307    
    454000   292.94028      0.0036007403   2.3644426      726.79291     -12.355272      714.43764    
    455000   306.41202      0.0036007403   0.65661047     760.21667     -12.32563       747.89104    
    456000   307.55743      0.0036007403   4.0656405      763.05846     -15.77145       747.28701    
    457000   293.25533      0.0036007403   2.2502331      727.57455     -15.053987      712.52056    
    458000   293.83108      0.0036007403   1.6659759      729.00302     -13.78296       715.22006    
    459000   308.57661      0.0036007403   1.6465403      765.58707     -16.0879        749.49917    
    460000   316.02716      0.0036007403   2.7086         784.07209     -13.721757      770.35033    
    461000   300.78879      0.0036007403   1.5567686      746.26528     -11.862217      734.40306    
    462000   289.45441      0.0036007403   1.75634        718.14436     -13.801879      704.34248    
    463000   291.79171      0.0036007403   2.2827864      723.94329     -14.518335      709.42495    
    464000   311.60182      0.0036007403   2.4556709      773.09269     -12.013992      761.0787     
    465000   302.65513      0.0036007403   1.714102       750.89571     -11.061102      739.83461    
    466000   298.35136      0.0036007403   1.4185789      740.21795     -12.3905        727.82745    
    467000   298.07369      0.0036007403   2.8614697      739.52903     -12.123132      727.4059     
    468000   294.88974      0.0036007403   1.9845984      731.62957     -14.266828      717.36275    
    469000   300.09616      0.0036007403   1.6265155      744.54685     -14.847576      729.69927    
    470000   301.28586      0.0036007403   1.8684668      747.49853     -14.755071      732.74346    
    471000   289.16903      0.0036007403   1.0124524      717.43633     -10.978908      706.45742    
    472000   295.40318      0.0036007403   1.7708948      732.90343     -13.732058      719.17137    
    473000   308.81679      0.0036007403   2.3973864      766.18298     -14.526369      751.65661    
    474000   297.49211      0.0036007403   1.8497686      738.08612     -12.603216      725.48291    
    475000   306.04367      0.0036007403   2.5981961      759.30278     -13.138128      746.16465    
    476000   303.80684      0.0036007403   1.4896764      753.75314     -15.242248      738.51089    
    477000   296.55527      0.0036007403   2.5602298      735.7618      -16.442868      719.31893    
    478000   299.96827      0.0036007403   2.4246089      744.22955     -16.388839      727.84071    
    479000   300.57105      0.0036007403   0.59478252     745.72505     -15.269987      730.45506    
    480000   293.88284      0.0036007403   2.8593933      729.13143     -16.917551      712.21387    
    481000   296.9941       0.0036007403   0.89667427     736.85054     -18.972718      717.87782    
    482000   320.1403       0.0036007403   2.2388974      794.2769      -17.350318      776.92659    
    483000   303.05094      0.0036007403   1.9410871      751.87773     -17.164839      734.7129     
    484000   287.86167      0.0036007403   2.0412648      714.19275     -19.85741       694.33534    
    485000   299.82935      0.0036007403   2.7963616      743.88487     -17.116201      726.76867    
    486000   308.77856      0.0036007403   1.5540945      766.08813     -17.238702      748.84942    
    487000   301.35358      0.0036007403   0.44022443     747.66654     -17.473059      730.19348    
    488000   290.29835      0.0036007403   1.1460507      720.23821     -18.254733      701.98348    
    489000   299.50744      0.0036007403   1.6517282      743.08621     -18.269382      724.81683    
    490000   297.63222      0.0036007403   3.1539386      738.43374     -19.082673      719.35107    
    491000   305.27554      0.0036007403   4.2281721      757.39703     -15.680579      741.71645    
    492000   296.79208      0.0036007403   2.2273721      736.34932     -16.046796      720.30252    
    493000   300.65137      0.0036007403   0.92948625     745.92433     -17.952219      727.97211    
    494000   289.95489      0.0036007403   1.4303507      719.38608     -17.326127      702.05996    
    495000   292.9127       0.0036007403   3.906178       726.72447     -16.788013      709.93646    
    496000   298.92802      0.0036007403  -0.16424273     741.64865     -15.128524      726.52013    
    497000   295.11075      0.0036007403   0.67264219     732.1779      -16.181434      715.99647    
    498000   301.68987      0.0036007403   2.8909791      748.50089     -14.309957      734.19093    
    499000   304.63679      0.0036007403   3.764423       755.81229     -17.301067      738.51122    
    500000   307.83291      0.0036007403   0.86761479     763.74193     -17.113296      746.62863    
    501000   290.81549      0.0036007403   2.8891684      721.52126     -15.470972      706.05028    
    502000   307.72575      0.0036007403   2.4865107      763.47606     -16.545508      746.93055    
    503000   282.59715      0.0036007403   1.9953634      701.13132     -16.135686      684.99563    
    504000   293.33358      0.0036007403   1.7432605      727.76871     -15.099661      712.66905    
    505000   306.61339      0.0036007403   2.3804562      760.71627     -14.112818      746.60345    
    506000   296.214        0.0036007403   3.1154039      734.9151      -15.696371      719.21873    
    507000   289.30319      0.0036007403   1.0299604      717.7692      -15.259581      702.50962    
    508000   300.32567      0.0036007403   1.4686109      745.11626     -14.793053      730.3232     
    509000   306.35616      0.0036007403   2.3744808      760.07809     -12.925937      747.15215    
    510000   298.90353      0.0036007403   1.9795124      741.58791     -12.367273      729.22063    
    511000   293.14445      0.0036007403   1.3992623      727.29947     -14.041124      713.25835    
    512000   295.88268      0.0036007403   2.0181682      734.09309     -15.118292      718.9748     
    513000   297.91505      0.0036007403   2.0975362      739.13544     -14.949883      724.18556    
    514000   296.46809      0.0036007403   2.2777642      735.54551     -12.927811      722.6177     
    515000   292.9247       0.0036007403   2.1302923      726.75425     -13.683424      713.07082    
    516000   296.09373      0.0036007403   1.615732       734.6167      -11.870941      722.74576    
    517000   302.54694      0.0036007403   2.0061037      750.62729     -11.680782      738.94651    
    518000   298.61808      0.0036007403   1.9761647      740.87969     -13.87686       727.00283    
    519000   294.88886      0.0036007403   0.64017896     731.6274      -16.578965      715.04844    
    520000   308.07988      0.0036007403   2.6212747      764.35467     -15.024386      749.33028    
    521000   298.92457      0.0036007403   1.6096757      741.64009     -16.803514      724.83657    
    522000   291.71305      0.0036007403   1.8823177      723.74811     -12.983367      710.76474    
    523000   301.29489      0.0036007403   1.9775871      747.52092     -13.03408       734.48684    
    524000   308.1893       0.0036007403   2.9592774      764.62616     -13.183754      751.4424     
    525000   290.05244      0.0036007403   2.5236245      719.6281      -12.657825      706.97027    
    526000   308.38035      0.0036007403   1.3442677      765.10015     -12.11262       752.98753    
    527000   306.24001      0.0036007403   1.7262474      759.78991     -12.455364      747.33455    
    528000   293.67169      0.0036007403   2.6959323      728.60756     -13.074831      715.53273    
    529000   302.32396      0.0036007403   2.8449412      750.07408     -14.322294      735.75179    
    530000   302.41886      0.0036007403   1.9515055      750.30953     -12.018084      738.29145    
    531000   301.40229      0.0036007403   1.2047467      747.7874      -14.825376      732.96202    
    532000   290.87473      0.0036007403   1.8445206      721.66822     -14.257744      707.41048    
    533000   297.80521      0.0036007403   1.9799858      738.86295     -12.538809      726.32414    
    534000   316.00716      0.0036007403   1.9206573      784.02248     -15.717125      768.30536    
    535000   299.28076      0.0036007403   2.8133985      742.52381     -13.694534      728.82927    
    536000   289.97642      0.0036007403   2.0185544      719.43948     -11.502673      707.93681    
    537000   300.02662      0.0036007403  -1.1214321      744.37432     -12.783904      731.59042    
    538000   306.68297      0.0036007403   1.0972794      760.88891     -14.599151      746.28976    
    539000   310.79457      0.0036007403   5.8052723      771.0899      -10.546668      760.54323    
    540000   302.94148      0.0036007403   2.4286757      751.60616     -13.669007      737.93715    
    541000   288.66497      0.0036007403   0.24372153     716.18576     -12.633305      703.55245    
    542000   299.79707      0.0036007403  -0.098582288    743.80479     -10.975178      732.82962    
    543000   316.56704      0.0036007403   1.4519881      785.41155     -10.934919      774.47663    
    544000   297.98899      0.0036007403   3.036936       739.31889     -11.262637      728.05625    
    545000   292.25238      0.0036007403   1.7447328      725.08622     -10.937188      714.14903    
    546000   315.14971      0.0036007403   2.0883961      781.89512     -12.719101      769.17602    
    547000   305.90708      0.0036007403   1.9539706      758.96389     -14.618763      744.34513    
    548000   302.47878      0.0036007403   1.6243187      750.4582      -12.024728      738.43347    
    549000   293.75783      0.0036007403   2.1448549      728.82128     -11.906018      716.91526    
    550000   302.40321      0.0036007403   2.15287        750.27069     -12.437487      737.83321    
    551000   304.3815       0.0036007403   1.9673733      755.17889     -11.801667      743.37722    
    552000   291.69598      0.0036007403   1.8076582      723.70577     -13.289745      710.41602    
    553000   301.49379      0.0036007403   2.0199254      748.01439     -12.454235      735.56016    
    554000   300.34009      0.0036007403   1.9323565      745.15204     -13.845145      731.30689    
    555000   296.21756      0.0036007403   1.5488686      734.92392     -10.860004      724.06392    
    556000   284.6196       0.0036007403   1.5969678      706.14908     -12.386761      693.76232    
    557000   291.7215       0.0036007403   2.0887452      723.76909     -10.173369      713.59572    
    558000   291.76393      0.0036007403   2.0429555      723.87436     -11.073614      712.80074    
    559000   312.91059      0.0036007403   1.7378899      776.3398      -11.646362      764.69344    
    560000   317.01416      0.0036007403   0.49118791     786.52088     -12.51157       774.00931    
    561000   293.10542      0.0036007403   0.65207036     727.20262     -9.9638072      717.23881    
    562000   291.96675      0.0036007403   3.9834845      724.37756     -9.2623821      715.11518    
    563000   301.66574      0.0036007403   4.625189       748.44101     -9.2335192      739.20749    
    564000   318.55298      0.0036007403   1.9069306      790.33872     -9.5163835      780.82233    
    565000   292.47253      0.0036007403   0.21101308     725.63241     -9.1853863      716.44702    
    566000   288.14221      0.0036007403   2.4574534      714.88876     -13.085709      701.80305    
    567000   294.96715      0.0036007403   3.7318877      731.82164     -10.449547      721.37209    
    568000   317.22635      0.0036007403   2.2281123      787.04731     -10.115528      776.93178    
    569000   309.23259      0.0036007403   2.1805172      767.21457     -11.832442      755.38213    
    570000   282.50998      0.0036007403   2.4624468      700.91505     -11.165876      689.74918    
    571000   298.60693      0.0036007403   1.8669617      740.85202     -11.625105      729.22692    
    572000   298.47561      0.0036007403   2.2669506      740.52621     -11.949473      728.57673    
    573000   302.86545      0.0036007403   1.8124393      751.41753     -12.179338      739.2382     
    574000   292.95359      0.0036007403   1.8531848      726.82593     -11.471781      715.35415    
    575000   300.49384      0.0036007403   1.737993       745.53351     -12.597344      732.93617    
    576000   311.86056      0.0036007403   2.2354784      773.73464     -9.4610047      764.27364    
    577000   309.29969      0.0036007403   1.6192693      767.38106     -14.537417      752.84364    
    578000   292.51889      0.0036007403   1.6695098      725.74742     -13.532687      712.21473    
    579000   289.64951      0.0036007403   2.1827386      718.62841     -13.872772      704.75564    
    580000   304.66532      0.0036007403   2.3545982      755.88306     -9.999061       745.884      
    581000   300.92717      0.0036007403   2.9185732      746.60861     -12.260739      734.34787    
    582000   302.54804      0.0036007403   2.0433436      750.63002     -12.568476      738.06155    
    583000   304.9603       0.0036007403   1.2030144      756.6149      -15.108378      741.50652    
    584000   288.39051      0.0036007403   2.586203       715.50482     -14.022346      701.48247    
    585000   300.41251      0.0036007403   2.3575284      745.33171     -17.213053      728.11866    
    586000   306.6747       0.0036007403   0.4760522      760.86839     -13.097893      747.7705     
    587000   300.65171      0.0036007403   1.8761461      745.92517     -13.713086      732.21209    
    588000   296.66633      0.0036007403   2.2698847      736.03735     -15.272896      720.76445    
    589000   300.095        0.0036007403   1.5421129      744.54396     -11.530975      733.01298    
    590000   298.57068      0.0036007403   1.8958983      740.76209     -11.617567      729.14453    
    591000   300.80019      0.0036007403   2.093137       746.29357     -12.642364      733.6512     
    592000   295.97405      0.0036007403   2.143586       734.31978     -11.223427      723.09636    
    593000   305.52031      0.0036007403   1.6483726      758.00431     -13.545154      744.45916    
    594000   296.28635      0.0036007403   1.9491498      735.0946      -12.701666      722.39294    
    595000   294.89243      0.0036007403   2.1158592      731.63624     -14.178299      717.45794    
    596000   295.5426       0.0036007403   0.87032577     733.24934     -18.109633      715.1397     
    597000   296.57082      0.0036007403  -0.52290926     735.80037     -16.108693      719.69168    
    598000   300.10282      0.0036007403   2.0752696      744.56336     -11.466994      733.09637    
    599000   298.26092      0.0036007403   3.3117965      739.99355     -12.475736      727.51782    
    600000   297.82711      0.0036007403   1.8964958      738.91728     -11.393046      727.52423    
    601000   297.21492      0.0036007403   0.89288194     737.3984      -10.829052      726.56935    
    602000   312.89533      0.0036007403   3.3642858      776.30193     -11.512865      764.78907    
    603000   304.42276      0.0036007403   1.4236996      755.28127     -11.773118      743.50815    
    604000   289.53487      0.0036007403  -1.0113782      718.34398     -12.68529       705.65869    
    605000   303.62477      0.0036007403   3.763122       753.30143     -11.247849      742.05358    
    606000   302.26181      0.0036007403   3.7853413      749.91988     -11.868502      738.05138    
    607000   307.71001      0.0036007403  -1.9724706      763.43701     -12.325408      751.1116     
    608000   290.86689      0.0036007403   2.2585948      721.64877     -11.73236       709.91641    
    609000   305.09332      0.0036007403   4.5997076      756.94494     -7.9994133      748.94553    
    610000   306.11658      0.0036007403   2.2557672      759.48366     -9.7318954      749.75177    
    611000   297.43677      0.0036007403  -0.91366556     737.94882     -7.6170752      730.33174    
    612000   295.14163      0.0036007403   7.291675       732.25451     -10.239528      722.01498    
    613000   318.24543      0.0036007403   2.5382902      789.57568     -10.493814      779.08186    
    614000   298.37135      0.0036007403  -0.77548699     740.26756     -11.101264      729.16629    
    615000   283.70859      0.0036007403   5.6448168      703.88884     -10.010016      693.87883    
    616000   309.29676      0.0036007403   1.74558        767.37378     -10.352544      757.02124    
    617000   302.04827      0.0036007403  -1.5297007      749.39008     -10.583913      738.80617    
    618000   293.787        0.0036007403   3.0003296      728.89365     -11.339309      717.55434    
    619000   302.28882      0.0036007403   6.5992031      749.98689     -11.662912      738.32398    
    620000   314.6117       0.0036007403   2.6655384      780.5603      -11.936684      768.62361    
    621000   296.38741      0.0036007403  -2.2288036      735.34535     -10.007021      725.33832    
    622000   295.04267      0.0036007403   2.7020085      732.00901     -10.323586      721.68542    
    623000   305.56376      0.0036007403   3.3736374      758.11212     -10.066247      748.04588    
    624000   313.16663      0.0036007403   1.2176648      776.97505     -9.8661746      767.10888    
    625000   289.21911      0.0036007403  -0.35442424     717.56058     -8.888725       708.67186    
    626000   298.58579      0.0036007403   3.7831271      740.79958     -7.2032903      733.59628    
    627000   306.08317      0.0036007403   2.5202834      759.40077     -12.614491      746.78628    
    628000   298.83357      0.0036007403  -1.6205997      741.41433     -13.491734      727.9226     
    629000   296.49484      0.0036007403   2.8111533      735.61188     -10.302956      725.30892    
    630000   299.46788      0.0036007403   2.4485113      742.98806     -11.681485      731.30657    
    631000   303.31013      0.0036007403   1.3253304      752.5208      -10.776518      741.74428    
    632000   303.62618      0.0036007403   0.46619731     753.30493     -9.6236342      743.6813     
    633000   287.51564      0.0036007403   3.3289661      713.33423     -9.4441146      703.89012    
    634000   306.24352      0.0036007403   2.6607883      759.79861     -9.7173756      750.08124    
    635000   308.51459      0.0036007403   1.7755628      765.4332      -8.3113189      757.12188    
    636000   297.26444      0.0036007403   1.6922162      737.52127     -10.818584      726.70268    
    637000   282.57634      0.0036007403   1.7370242      701.07969     -10.959267      690.12042    
    638000   299.55618      0.0036007403   2.07998        743.20714     -9.7218226      733.48532    
    639000   319.06592      0.0036007403   2.015035       791.61133     -10.745928      780.8654     
    640000   299.11291      0.0036007403   1.9248009      742.10738     -13.512227      728.59515    
    641000   284.41516      0.0036007403   2.0831679      705.64185     -12.66517       692.97668    
    642000   308.70017      0.0036007403   2.1358614      765.89362     -13.566639      752.32698    
    643000   300.39843      0.0036007403   1.4427252      745.29678     -10.819196      734.47758    
    644000   289.91718      0.0036007403   1.5751055      719.29251     -10.598423      708.69408    
    645000   298.44738      0.0036007403   1.973051       740.45619     -14.382654      726.07353    
    646000   321.27968      0.0036007403   2.7567325      797.10375     -11.764624      785.33913    
    647000   301.82176      0.0036007403   1.1674064      748.82812     -12.773412      736.05471    
    648000   298.29165      0.0036007403   0.84047267     740.06981     -12.374983      727.69482    
    649000   276.43077      0.0036007403   1.7108635      685.83237     -11.881118      673.95125    
    650000   300.65155      0.0036007403   2.6262797      745.92477     -13.362592      732.56218    
    651000   311.53371      0.0036007403   3.0425687      772.92372     -11.77505       761.14867    
    652000   299.46359      0.0036007403   0.7929759      742.97742     -11.822469      731.15495    
    653000   288.92808      0.0036007403   1.1732731      716.83852     -9.0735579      707.76496    
    654000   288.05482      0.0036007403   2.4202218      714.67195     -10.596787      704.07516    
    655000   314.23784      0.0036007403   2.5083256      779.63275     -11.375218      768.25753    
    656000   303.0913       0.0036007403  -0.62753571     751.97786     -12.1801        739.79776    
    657000   293.54084      0.0036007403   1.4819358      728.28293     -11.381492      716.90143    
    658000   296.70144      0.0036007403   3.2612853      736.12445     -15.167597      720.95686    
    659000   312.55136      0.0036007403   2.5328732      775.44855     -16.161151      759.2874     
    660000   318.1227       0.0036007403   1.1233257      789.27118     -13.478765      775.79242    
    661000   282.64471      0.0036007403   1.6280635      701.24931     -10.91368       690.33563    
    662000   303.71701      0.0036007403   2.9749824      753.53027     -12.293985      741.23629    
    663000   312.64941      0.0036007403   1.8081758      775.6918      -11.816971      763.87483    
    664000   310.64053      0.0036007403   1.987724       770.70772     -10.69897       760.00875    
    665000   294.82735      0.0036007403   2.2106658      731.47479     -11.029498      720.44529    
    666000   292.02519      0.0036007403   0.63465945     724.52256     -11.392534      713.13002    
    667000   313.65384      0.0036007403   1.5417997      778.18383     -12.562567      765.62126    
    668000   303.39977      0.0036007403   1.9728012      752.74319     -12.613059      740.13013    
    669000   288.7833       0.0036007403   2.0016253      716.47933     -12.054577      704.42475    
    670000   305.8986       0.0036007403   2.5650859      758.94286     -12.21006       746.7328     
    671000   302.54832      0.0036007403   2.0006535      750.63072     -12.319246      738.31148    
    672000   296.07677      0.0036007403   2.0225175      734.57462     -12.07197       722.50265    
    673000   308.96208      0.0036007403   2.1943806      766.54343     -13.454513      753.08891    
    674000   296.91435      0.0036007403   2.0994286      736.6527      -13.003115      723.64958    
    675000   292.91645      0.0036007403   1.8607116      726.73379     -14.817557      711.91623    
    676000   308.58486      0.0036007403   2.6008204      765.60755     -16.583354      749.0242     
    677000   308.24123      0.0036007403   0.60732106     764.755       -12.932063      751.82294    
    678000   302.14855      0.0036007403   2.0259129      749.63888     -15.21527       734.42361    
    679000   293.16225      0.0036007403   2.0876393      727.34363     -15.796037      711.54759    
    680000   307.01157      0.0036007403   2.1256478      761.70417     -14.366057      747.33811    
    681000   310.04001      0.0036007403   1.6915818      769.21781     -13.789462      755.42835    
    682000   290.07308      0.0036007403   2.0665286      719.67931     -11.875139      707.80417    
    683000   288.90346      0.0036007403   2.5400852      716.77744     -13.185377      703.59206    
    684000   307.83911      0.0036007403   1.7163779      763.75731     -15.645261      748.11205    
    685000   297.54123      0.0036007403  -2.5026739      738.20799     -14.370372      723.83762    
    686000   293.05862      0.0036007403   3.6918323      727.0865      -14.222703      712.8638     
    687000   310.20537      0.0036007403  -0.45666576     769.62807     -12.492866      757.1352     
    688000   304.24864      0.0036007403   0.052446878    754.84927     -13.662298      741.18697    
    689000   291.8326       0.0036007403   0.99586025     724.04473     -13.334864      710.70987    
    690000   306.77002      0.0036007403   2.4025145      761.10487     -10.610008      750.49486    
    691000   310.84648      0.0036007403   1.9151171      771.21869     -11.81114       759.40755    
    692000   299.76479      0.0036007403   0.096045952    743.72472     -11.028022      732.6967     
    693000   293.98483      0.0036007403   2.1185576      729.38448     -11.376491      718.00799    
    694000   305.14758      0.0036007403   1.7465904      757.07956     -12.26139       744.81817    
    695000   302.92709      0.0036007403   2.1951597      751.57045     -13.561661      738.00879    
    696000   296.72516      0.0036007403   2.5785651      736.18329     -14.011983      722.17131    
    697000   290.59511      0.0036007403   2.6728894      720.97449     -10.731116      710.24337    
    698000   282.97793      0.0036007403   1.5945681      702.07604     -12.660207      689.41584    
    699000   309.54546      0.0036007403   1.858034       767.99081     -12.515639      755.47517    
    700000   294.28213      0.0036007403   2.2188013      730.12207     -12.517868      717.60421    
    701000   289.68128      0.0036007403   1.8715527      718.70723     -9.1360416      709.57119    
    702000   312.25506      0.0036007403   1.0179948      774.71341     -10.193172      764.52023    
    703000   297.14093      0.0036007403   1.655499       737.21485     -10.841691      726.37316    
    704000   304.44158      0.0036007403   1.6465313      755.32795     -9.9210425      745.40691    
    705000   329.16124      0.0036007403   3.449746       816.65811     -10.218966      806.43914    
    706000   301.00568      0.0036007403   1.9322814      746.80339     -11.701225      735.10217    
    707000   302.6783       0.0036007403   1.9337278      750.95321     -10.427041      740.52617    
    708000   301.37418      0.0036007403   1.8396468      747.71765     -12.168189      735.54946    
    709000   300.36019      0.0036007403   2.0361977      745.2019      -12.926821      732.27508    
    710000   304.7443       0.0036007403   2.5062422      756.07901     -9.813239       746.26577    
    711000   301.21405      0.0036007403   1.9481055      747.32036     -10.491596      736.82876    
    712000   304.95994      0.0036007403   1.6592804      756.61401     -9.5215071      747.0925     
    713000   297.82296      0.0036007403   1.1411639      738.90698     -12.566848      726.34013    
    714000   288.33509      0.0036007403   2.397189       715.3673      -10.657316      704.70999    
    715000   310.43883      0.0036007403   3.9399185      770.2073      -10.995226      759.21207    
    716000   309.88653      0.0036007403   1.1969907      768.83702     -9.0396205      759.7974     
    717000   294.20593      0.0036007403   2.1527379      729.93302     -9.8678205      720.0652     
    718000   301.91164      0.0036007403   3.3628525      749.05109     -13.84301       735.20808    
    719000   317.68846      0.0036007403   1.9963294      788.19383     -13.686336      774.5075     
    720000   293.59763      0.0036007403   0.43177169     728.42382     -14.867589      713.55623    
    721000   291.27083      0.0036007403   2.3888579      722.65097     -11.098817      711.55215    
    722000   309.86172      0.0036007403   2.1652463      768.77548     -12.081326      756.69415    
    723000   302.09357      0.0036007403   2.0225737      749.50247     -12.624642      736.87782    
    724000   301.31409      0.0036007403   1.9999605      747.56856     -13.742112      733.82645    
[...]
   3823000   315.39592      0.0036007403   0.74317016     782.50598     -3.0357601      779.47022    
   3824000   293.47074      0.0036007403   2.3448294      728.10899     -5.4889458      722.62005    
   3825000   304.92388      0.0036007403   4.7010167      756.52454     -3.1380379      753.3865     
   3826000   307.54472      0.0036007403  -0.9281102      763.02693     -3.6957425      759.33118    
   3827000   296.01883      0.0036007403   1.6868697      734.43088     -3.7096002      730.72128    
   3828000   294.58795      0.0036007403   2.4607531      730.88084     -3.6204414      727.2604     
   3829000   296.96572      0.0036007403   2.6237365      736.78014     -4.6719668      732.10818    
   3830000   301.03579      0.0036007403   1.8996777      746.87808     -4.4989909      742.37909    
   3831000   299.01037      0.0036007403   1.5381961      741.85296     -5.0766759      736.77629    
   3832000   298.91308      0.0036007403   2.5527614      741.61158     -5.4946647      736.11692    
   3833000   298.52738      0.0036007403   2.6754523      740.65467     -5.5748418      735.07982    
   3834000   306.82158      0.0036007403   2.8158314      761.23279     -5.4625708      755.77022    
   3835000   289.84863      0.0036007403   1.0767249      719.12245     -7.0587971      712.06366    
   3836000   283.72644      0.0036007403   1.8194803      703.93313     -6.651813       697.28132    
   3837000   313.55053      0.0036007403   2.3357938      777.9275      -4.2698516      773.65765    
   3838000   303.41797      0.0036007403   2.0503164      752.78835     -7.2096999      745.57865    
   3839000   283.72753      0.0036007403   1.8843995      703.93583     -7.8781355      696.0577     
   3840000   294.96587      0.0036007403   1.910983       731.81845     -7.4774685      724.34098    
   3841000   310.15308      0.0036007403   1.9239722      769.49835     -5.4794295      764.01892    
   3842000   316.20534      0.0036007403   3.3456193      784.51416     -5.5169073      778.99725    
   3843000   298.70163      0.0036007403   2.2820343      741.08697     -4.3247024      736.76227    
   3844000   282.47834      0.0036007403   3.3026576      700.83655     -4.2468238      696.58972    
   3845000   297.0849       0.0036007403   3.3881797      737.07583     -3.2150801      733.86075    
   3846000   297.23789      0.0036007403   0.93542434     737.4554      -1.0546926      736.40071    
   3847000   290.1119       0.0036007403   0.7970763      719.77561     -2.8005459      716.97506    
   3848000   306.11785      0.0036007403   2.5188743      759.48682     -3.6587883      755.82804    
   3849000   295.85675      0.0036007403   3.3687643      734.02876     -5.6825462      728.34621    
   3850000   305.44364      0.0036007403   0.48344754     757.8141      -3.3735949      754.4405     
   3851000   305.53259      0.0036007403   0.84819777     758.03479     -3.0470895      754.9877     
   3852000   303.56718      0.0036007403   1.8750839      753.15853     -5.1821745      747.97636    
   3853000   293.53864      0.0036007403   2.9726949      728.27746     -4.646024       723.63143    
   3854000   290.30244      0.0036007403   2.0248163      720.24836     -4.4722333      715.77612    
   3855000   315.34244      0.0036007403   1.4026444      782.3733      -3.9906686      778.38263    
   3856000   302.581        0.0036007403   4.536803       750.71179     -4.0057139      746.70608    
   3857000   288.98503      0.0036007403   2.1863201      716.97983     -3.4015193      713.57831    
   3858000   288.86683      0.0036007403   1.3799364      716.68658     -5.9443266      710.74225    
   3859000   304.89332      0.0036007403   1.9149326      756.44874     -4.6952515      751.75349    
   3860000   300.70687      0.0036007403   1.9917436      746.06204     -5.0504962      741.01155    
   3861000   289.62622      0.0036007403   7.221918       718.57063     -5.1417537      713.42888    
   3862000   304.52128      0.0036007403   1.2546248      755.5257      -5.0048461      750.52085    
   3863000   298.29903      0.0036007403   1.4520713      740.08812     -4.5796401      735.50848    
   3864000   305.26442      0.0036007403   2.2991476      757.36944     -6.1904998      751.17894    
   3865000   305.75328      0.0036007403   5.5264478      758.58231     -4.9684936      753.61382    
   3866000   297.7784       0.0036007403   3.9982238      738.79643     -6.0728048      732.72362    
   3867000   306.92366      0.0036007403   2.0937407      761.48605     -5.4472546      756.0388     
   3868000   313.56509      0.0036007403  -5.1122813      777.96363     -5.4193578      772.54427    
   3869000   295.03125      0.0036007403   4.3878344      731.98067     -3.6809466      728.29973    
   3870000   289.62632      0.0036007403   4.122649       718.57089     -5.1871409      713.38375    
   3871000   301.9737       0.0036007403   0.93427532     749.20508     -4.0442526      745.16082    
   3872000   297.81013      0.0036007403  -0.39956706     738.87515     -4.276128       734.59903    
   3873000   302.93561      0.0036007403   4.637263       751.59159     -7.150108       744.44149    
   3874000   308.00957      0.0036007403   2.188658       764.18024     -5.370364       758.80988    
   3875000   295.01627      0.0036007403   0.0051933701   731.94351     -6.1695282      725.77398    
   3876000   297.58718      0.0036007403   1.5921983      738.32199     -4.4866367      733.83535    
   3877000   308.40767      0.0036007403   2.1893618      765.16794     -4.8959873      760.27195    
   3878000   296.58105      0.0036007403   3.7282019      735.82576     -5.4546854      730.37107    
   3879000   276.7229       0.0036007403   2.267664       686.55714     -6.9403531      679.61679    
   3880000   297.5147       0.0036007403   1.5123627      738.14218     -4.5298382      733.61234    
   3881000   308.1514       0.0036007403   3.5269976      764.53212     -4.981667       759.55045    
   3882000   296.49188      0.0036007403   1.9589902      735.60453     -3.0124994      732.59203    
   3883000   297.26595      0.0036007403   1.5164619      737.52501     -5.6594015      731.86561    
   3884000   310.18771      0.0036007403   2.1111306      769.58426     -6.2666147      763.31765    
   3885000   288.83153      0.0036007403   2.0387995      716.59899     -4.9031905      711.6958     
   3886000   289.4776       0.0036007403   2.067047       718.20191     -8.8819531      709.31996    
   3887000   294.81924      0.0036007403   2.864029       731.45465     -9.383141       722.07151    
   3888000   297.11374      0.0036007403   2.7529376      737.14738     -9.6616173      727.48576    
   3889000   301.3879       0.0036007403   2.5366359      747.75168     -8.5503098      739.20137    
   3890000   318.79706      0.0036007403  -0.70313664     790.94428     -7.4075479      783.53674    
   3891000   298.61337      0.0036007403   1.3261025      740.86799     -6.4670409      734.40095    
   3892000   289.50824      0.0036007403   2.1508519      718.27791     -7.3261852      710.95173    
   3893000   303.81766      0.0036007403   3.6020855      753.77998     -7.2257555      746.55422    
   3894000   313.91912      0.0036007403   1.4313716      778.84198     -8.3850039      770.45697    
   3895000   306.49362      0.0036007403  -0.94536613     760.41912     -6.4954419      753.92368    
   3896000   285.32735      0.0036007403   3.4009196      707.90502     -5.8013907      702.10363    
   3897000   308.22575      0.0036007403   4.0300763      764.71657     -3.8329786      760.88359    
   3898000   315.08448      0.0036007403   3.0472467      781.73327     -6.0003803      775.73289    
   3899000   314.20212      0.0036007403   0.82041918     779.54413     -6.1431832      773.40094    
   3900000   285.13371      0.0036007403  -0.36609299     707.42459     -5.4048342      702.01976    
   3901000   305.92661      0.0036007403   4.0016609      759.01236     -1.9265045      757.08586    
   3902000   308.61441      0.0036007403  -1.3546397      765.68086     -4.9587087      760.72215    
   3903000   295.36292      0.0036007403   1.8560025      732.80355     -4.4422352      728.36132    
   3904000   290.38856      0.0036007403   2.726518       720.46203     -5.5919138      714.87012    
   3905000   313.31955      0.0036007403   4.5182153      777.35444     -6.376352       770.97808    
   3906000   312.23865      0.0036007403   1.7108607      774.67269     -3.7649794      770.90771    
   3907000   293.00189      0.0036007403   0.64396184     726.94576     -7.4007549      719.545      
   3908000   295.13114      0.0036007403   0.84934447     732.22849     -7.5131547      724.71534    
   3909000   307.47423      0.0036007403   4.288623       762.85204     -7.640482       755.21155    
   3910000   316.30517      0.0036007403   3.7783143      784.76185     -6.4839554      778.27789    
   3911000   293.40711      0.0036007403   1.0246571      727.95112     -8.9415984      719.00953    
   3912000   283.21834      0.0036007403  -0.42450674     702.6725      -6.7634762      695.90902    
   3913000   301.22633      0.0036007403   2.6352579      747.35082     -5.9494317      741.40139    
   3914000   308.89668      0.0036007403   2.2603853      766.38118     -5.5071238      760.87406    
   3915000   303.01838      0.0036007403   3.5262694      751.79695     -6.2724037      745.52455    
   3916000   311.71731      0.0036007403   0.07176154     773.37925     -5.9310676      767.44818    
   3917000   308.11957      0.0036007403   1.0517701      764.45316     -4.8478749      759.60528    
   3918000   284.61007      0.0036007403   1.8119257      706.12543     -6.028988       700.09644    
   3919000   299.95133      0.0036007403   2.9722684      744.18752     -7.3461886      736.84134    
   3920000   308.58262      0.0036007403   2.563632       765.60199     -5.1662868      760.4357     
   3921000   305.00605      0.0036007403  -1.0497475      756.72842     -7.0313415      749.69708    
   3922000   289.50689      0.0036007403   1.6997164      718.27457     -7.2467857      711.02779    
   3923000   302.80067      0.0036007403   5.3208253      751.25681     -7.140185       744.11662    
   3924000   320.3873       0.0036007403   1.0148468      794.88972     -9.5855782      785.30414    
   3925000   300.47885      0.0036007403  -2.081088       745.49631     -8.8510656      736.64525    
   3926000   288.22066      0.0036007403   3.220022       715.0834      -6.4039664      708.67943    
   3927000   305.53909      0.0036007403   5.3046118      758.05091     -7.0602176      750.9907     
   3928000   309.71142      0.0036007403   5.5902586      768.40257     -9.1306628      759.27191    
   3929000   301.67274      0.0036007403   2.3021399      748.45838     -9.0136383      739.44474    
   3930000   300.17207      0.0036007403  -1.4744057      744.73518     -6.0445983      738.69058    
   3931000   286.68233      0.0036007403   0.57093614     711.26677     -7.0408405      704.22593    
   3932000   301.4526       0.0036007403   4.8744228      747.91222     -6.8685558      741.04367    
   3933000   299.73624      0.0036007403   2.2616584      743.65387     -5.9979596      737.65591    
   3934000   294.03641      0.0036007403  -1.3186279      729.51243     -5.731278       723.78115    
   3935000   302.03903      0.0036007403   2.6645704      749.36715     -6.639051       742.7281     
   3936000   298.76292      0.0036007403   2.2991316      741.23903     -6.8177654      734.42127    
   3937000   298.2139       0.0036007403   0.8326404      739.87691     -6.6796988      733.19721    
   3938000   288.60091      0.0036007403   1.8170668      716.02681     -8.0831055      707.94371    
   3939000   306.98637      0.0036007403   8.0451444      761.64166     -6.563431       755.07822    
   3940000   317.88991      0.0036007403   7.4384853      788.69362     -5.2465916      783.44703    
   3941000   300.59874      0.0036007403  -0.84815764     745.79376     -4.256203       741.53756    
   3942000   277.50352      0.0036007403   5.2286925      688.49389     -4.3152564      684.17863    
   3943000   288.05151      0.0036007403   3.5777045      714.66374     -4.3297386      710.334      
   3944000   307.95512      0.0036007403   4.5140849      764.04515     -4.0828423      759.9623     
   3945000   321.69789      0.0036007403  -0.59380938     798.14133     -2.7857411      795.35559    
   3946000   299.93985      0.0036007403   0.49764917     744.15904     -5.8320334      738.32701    
   3947000   291.96848      0.0036007403   4.2562115      724.38184     -7.2113233      717.17052    
   3948000   305.49958      0.0036007403   6.4400942      757.95288     -6.5188307      751.43404    
   3949000   310.42033      0.0036007403  -0.34969317     770.16141     -6.9019286      763.25948    
   3950000   295.3124       0.0036007403  -1.0120008      732.67819     -3.7015363      728.97666    
   3951000   289.72619      0.0036007403   4.7262489      718.81866     -5.2147607      713.6039     
   3952000   306.89156      0.0036007403   4.4409049      761.40642     -7.1050931      754.30133    
   3953000   308.8292       0.0036007403   0.083240378    766.21376     -6.3326643      759.8811     
   3954000   293.83176      0.0036007403   2.1701869      729.00471     -5.9322642      723.07244    
   3955000   284.34425      0.0036007403   6.9338344      705.46593     -4.8868719      700.57906    
   3956000   311.92124      0.0036007403   6.6436047      773.88519     -6.2681909      767.617      
   3957000   311.10662      0.0036007403   0.0046013408   771.8641      -4.9893667      766.87473    
   3958000   286.07413      0.0036007403   4.5295068      709.75781     -5.3101992      704.44761    
   3959000   292.35124      0.0036007403   2.7709487      725.33149     -5.053392       720.2781     
   3960000   307.44188      0.0036007403   2.6598798      762.77177     -5.0679589      757.70381    
   3961000   303.64279      0.0036007403   0.75902313     753.34612     -6.5092218      746.8369     
   3962000   288.0419       0.0036007403  -0.52071668     714.63989     -5.7974428      708.84245    
   3963000   298.99991      0.0036007403   2.3586304      741.82702     -7.1372962      734.68972    
   3964000   317.8141       0.0036007403   5.1946007      788.50554     -7.2994828      781.20605    
   3965000   311.22243      0.0036007403   3.1622279      772.15143     -7.5974408      764.55399    
   3966000   300.39206      0.0036007403   0.069896441    745.28098     -8.0881104      737.19287    
   3967000   294.50776      0.0036007403   3.6953331      730.68187     -5.4321616      725.24971    
   3968000   307.12847      0.0036007403   2.95638        761.9942      -4.9152421      757.07896    
   3969000   328.08502      0.0036007403   2.1059702      813.98798     -7.8558629      806.13212    
   3970000   305.5882       0.0036007403  -1.2059691      758.17275     -5.2761761      752.89657    
   3971000   296.6381       0.0036007403   0.49424259     735.9673      -5.9792706      729.98803    
   3972000   288.65866      0.0036007403   2.0150728      716.1701      -6.098768       710.07133    
   3973000   303.65691      0.0036007403   6.2695493      753.38116     -6.4884829      746.89267    
   3974000   312.5244       0.0036007403   2.5481328      775.38166     -7.8233293      767.55833    
   3975000   301.11109      0.0036007403   0.15831916     747.06492     -9.5399492      737.52497    
   3976000   287.34662      0.0036007403   1.4362589      712.91488     -11.997233      700.91764    
   3977000   302.74994      0.0036007403   3.2267333      751.13094     -10.383296      740.74764    
   3978000   319.06641      0.0036007403   2.7139261      791.61255     -9.3030598      782.30949    
   3979000   290.52788      0.0036007403   1.79203        720.80769     -9.5220945      711.2856     
   3980000   295.95298      0.0036007403   1.6737517      734.26751     -7.7371195      726.53039    
   3981000   302.03493      0.0036007403   2.0678037      749.35698     -6.7099061      742.64708    
   3982000   300.42156      0.0036007403   1.8994446      745.35416     -7.1275375      738.22662    
   3983000   318.02956      0.0036007403   2.2075823      789.0401      -6.5899638      782.45014    
   3984000   296.08301      0.0036007403   1.7312054      734.59011     -6.4960863      728.09402    
   3985000   290.10223      0.0036007403   1.7989236      719.75164     -5.4329141      714.31872    
   3986000   299.57232      0.0036007403   1.6956853      743.24719     -3.9076027      739.33959    
   3987000   310.21368      0.0036007403   2.7288694      769.64868     -7.9705415      761.67814    
   3988000   301.44504      0.0036007403   1.8885226      747.89346     -6.4364391      741.45702    
   3989000   293.25425      0.0036007403   1.7294024      727.57189     -6.2120361      721.35985    
   3990000   286.66514      0.0036007403   1.476068       711.2241      -5.2603875      705.96372    
   3991000   306.90559      0.0036007403   2.3665833      761.44124     -6.6632414      754.778      
   3992000   312.66568      0.0036007403   2.0379147      775.73218     -5.4433529      770.28883    
   3993000   306.39675      0.0036007403   1.9377754      760.17878     -6.3608991      753.81788    
   3994000   284.47827      0.0036007403   1.7445929      705.79843     -6.7223839      699.07605    
   3995000   298.75516      0.0036007403   2.0827269      741.21978     -6.2148653      735.00491    
   3996000   301.94153      0.0036007403   1.9957596      749.12526     -4.0412189      745.08404    
   3997000   315.65991      0.0036007403   2.1764926      783.16094     -4.3076684      778.85327    
   3998000   288.08816      0.0036007403   1.6491629      714.75467     -5.2049514      709.54972    
   3999000   296.4091       0.0036007403   2.5040756      735.39914     -3.4220645      731.97707    
   4000000   306.71249      0.0036007403   2.1740788      760.96215     -1.2107459      759.75141    
Loop time of 12231.8 on 1 procs for 4000000 steps with 1500 atoms

Performance: 7.064 ns/day, 3.398 hours/ns, 327.017 timesteps/s, 490.525 katom-step/s
100.0% CPU use with 1 MPI tasks x 1 OpenMP threads

MPI task timing breakdown:
Section |  min time  |  avg time  |  max time  |%varavg| %total
---------------------------------------------------------------
Pair    | 1144.4     | 1144.4     | 1144.4     |   0.0 |  9.36
Bond    | 91.35      | 91.35      | 91.35      |   0.0 |  0.75
Kspace  | 10460      | 10460      | 10460      |   0.0 | 85.52
Neigh   | 0.043324   | 0.043324   | 0.043324   |   0.0 |  0.00
Comm    | 19.52      | 19.52      | 19.52      |   0.0 |  0.16
Output  | 0.090925   | 0.090925   | 0.090925   |   0.0 |  0.00
Modify  | 500.63     | 500.63     | 500.63     |   0.0 |  4.09
Other   |            | 15.33      |            |       |  0.13

Nlocal:           1500 ave        1500 max        1500 min
Histogram: 1 0 0 0 0 0 0 0 0 0
Nghost:            643 ave         643 max         643 min
Histogram: 1 0 0 0 0 0 0 0 0 0
Neighs:              0 ave           0 max           0 min
Histogram: 1 0 0 0 0 0 0 0 0 0

Total # of neighbors = 0
Ave neighs/atom = 0
Ave special neighs/atom = 2
Neighbor list builds = 24378
Dangerous builds = 0
write_data	last_conf.data pair ij
System init for write_data ...
PPPM initialization ...
  using 12-bit tables for long-range coulomb (src/kspace.cpp:342)
  G vector (1/distance) = 0.14605409
  grid = 36 36 36
  stencil order = 5
  estimated absolute RMS force accuracy = 0.037423921
  estimated relative force accuracy = 0.00011270103
  using double precision FFTW3
  3d grid and FFT values/proc = 68921 46656
Generated 1 of 1 mixed pair_coeff terms from arithmetic mixing rule
Total wall time: 3:23:51
