LAMMPS data file via write_data, version 29 Aug 2024, timestep = 0, units = real

1500 atoms
2 atom types
1000 bonds
1 bond types
500 angles
1 angle types

0 171 xlo xhi
0 171 ylo yhi
0 171 zlo zhi

Masses

1 12.0107
2 15.9994

PairIJ Coeffs # lj/cut/coul/long/gpu

1 1 0.053649 2.8 12
1 2 0.0917684 2.925 12
2 2 0.156973 3.05 12

Bond Coeffs # harmonic

1 0 1.16

Angle Coeffs # harmonic

1 0 180

Atoms # full

1 1 1 0.7 12.598710809647438 48.53257774446745 17.034151264482247 0 0 0
2 1 2 -0.35 11.591050065405222 48.77026377010101 16.51096374768569 0 0 0
3 1 2 -0.35 13.606371553889653 48.294891718833895 17.557338781278805 0 0 0
4 2 1 0.7 38.980302153146035 40.938287925412084 116.80516240084785 0 0 0
5 2 2 -0.35 39.327622009275615 41.438855016224295 115.8180446241191 0 0 0
6 2 2 -0.35 38.632982297016454 40.43772083459987 117.7922801775766 0 0 0
7 3 1 0.7 64.36447104968339 27.6649320287001 15.51260636258526 0 0 0
8 3 2 -0.35 63.90186219473041 26.60116881386359 15.511673581909227 0 0 0
9 3 2 -0.35 64.82707990463636 28.72869524353661 15.513539143261292 0 0 0
10 4 1 0.7 116.3751359704766 18.910255800425194 106.66923774623743 0 0 0
11 4 2 -0.35 115.2900766527176 19.109299738576354 107.0278849093792 0 0 0
12 4 2 -0.35 117.46019528823561 18.711211862274034 106.31059058309566 0 0 0
13 5 1 0.7 25.87880101235528 92.00861465512244 35.786508642968954 0 0 0
14 5 2 -0.35 25.706142237310857 92.29359310464268 36.89762350233733 0 0 0
15 5 2 -0.35 26.0514597873997 91.7236362056022 34.675393783600576 0 0 0
16 6 1 0.7 56.85076237928624 113.7633086637423 68.92871151674944 0 0 0
17 6 2 -0.35 55.76328819489682 113.93686830893255 68.56418861232778 0 0 0
18 6 2 -0.35 57.93823656367565 113.58974901855204 69.2932344211711 0 0 0
19 7 1 0.7 130.85446200792418 39.94296718199875 146.44942785308203 0 0 0
20 7 2 -0.35 129.83308940835903 40.20564329824608 145.96631371459017 0 0 0
21 7 2 -0.35 131.87583460748934 39.680291065751426 146.93254199157388 0 0 0
22 8 1 0.7 1.533926749850589 130.7068847388527 124.6118058970253 0 0 0
23 8 2 -0.35 1.0590333501208855 131.72431702067607 124.90319534569637 0 0 0
24 8 2 -0.35 2.0088201495802926 129.68945245702932 124.32041644835424 0 0 0
25 9 1 0.7 113.62171130423513 83.10189027995891 136.46993526931382 0 0 0
26 9 2 -0.35 113.28095430118636 83.81390885511263 135.61992690846714 0 0 0
27 9 2 -0.35 113.96246830728391 82.38987170480519 137.3199436301605 0 0 0
28 10 1 0.7 27.20207135761253 102.21330739381412 33.057367833823605 0 0 0
29 10 2 -0.35 27.208650667586877 101.25376541959686 33.70916221274652 0 0 0
30 10 2 -0.35 27.195492047638187 103.17284936803138 32.40557345490069 0 0 0
31 11 1 0.7 16.18118307328838 67.1439127578139 58.74172057804732 0 0 0
32 11 2 -0.35 15.786772101735835 67.11473467896623 59.832219833083165 0 0 0
33 11 2 -0.35 16.575594044840926 67.17309083666156 57.65122132301148 0 0 0
34 12 1 0.7 89.0977552412533 18.97233974420109 124.11408078768946 0 0 0
35 12 2 -0.35 88.17841646262653 19.655748035482677 124.2967534936984 0 0 0
36 12 2 -0.35 90.01709401988006 18.288931452919503 123.93140808168052 0 0 0
37 13 1 0.7 127.35579869679911 61.908697102642016 135.4722041042858 0 0 0
38 13 2 -0.35 127.44076887362125 60.757854544633545 135.3541300778137 0 0 0
39 13 2 -0.35 127.27082851997697 63.059539660650486 135.5902781307579 0 0 0
40 14 1 0.7 16.334380731142303 76.93694830869183 148.29022418348595 0 0 0
41 14 2 -0.35 15.633361325633246 76.59611636294733 149.14929657732696 0 0 0
42 14 2 -0.35 17.03540013665136 77.27778025443632 147.43115178964493 0 0 0
43 15 1 0.7 159.7978518483219 167.49601474613698 103.51983832405872 0 0 0
44 15 2 -0.35 159.0112147711081 167.50212971429718 102.66733335872601 0 0 0
45 15 2 -0.35 160.5844889255357 167.48989977797677 104.37234328939144 0 0 0
46 16 1 0.7 103.92271245500199 35.02823121847037 137.48208883147785 0 0 0
47 16 2 -0.35 102.77318515138109 34.87805589507482 137.441661730752 0 0 0
48 16 2 -0.35 105.07223975862289 35.17840654186591 137.5225159322037 0 0 0
49 17 1 0.7 109.46699064805499 22.711821860033936 45.59000159035903 0 0 0
50 17 2 -0.35 108.49526417807769 23.283510629877878 45.862984406631014 0 0 0
51 17 2 -0.35 110.43871711803229 22.140133090189995 45.317018774087046 0 0 0
52 18 1 0.7 151.15672916414064 115.14706171171137 69.66618873303113 0 0 0
53 18 2 -0.35 150.34109062725219 115.76884716515632 69.12423243679802 0 0 0
54 18 2 -0.35 151.9723677010291 114.52527625826643 70.20814502926424 0 0 0
55 19 1 0.7 42.634036054198646 60.24396291665917 29.284740290737123 0 0 0
56 19 2 -0.35 42.45429541569066 60.55558151841378 28.18193153582572 0 0 0
57 19 2 -0.35 42.81377669270663 59.93234431490456 30.387549045648527 0 0 0
58 20 1 0.7 50.63006641884803 43.52630157886366 8.550635961606464 0 0 0
59 20 2 -0.35 51.55052554527891 43.46160970243412 9.253608192703915 0 0 0
60 20 2 -0.35 49.709607292417154 43.5909934552932 7.847663730509012 0 0 0
61 21 1 0.7 70.53860671983036 170.36314018879233 69.29715303252318 0 0 0
62 21 2 -0.35 71.34824339095941 169.63466970375856 69.69642638900685 0 0 0
63 21 2 -0.35 69.7289700487013 0.09161067382609644 68.89787967603952 0 1 0
64 22 1 0.7 167.25101761717863 89.85309192112325 59.9159183185156 0 0 0
65 22 2 -0.35 166.32571260464883 89.1687185191898 59.77085391725455 0 0 0
66 22 2 -0.35 168.17632262970844 90.53746532305671 60.06098271977665 0 0 0
67 23 1 0.7 158.83917929178065 129.08635695748328 77.4013844213455 0 0 0
68 23 2 -0.35 159.60181803702713 129.68606849786846 76.76551634337827 0 0 0
69 23 2 -0.35 158.07654054653418 128.4866454170981 78.03725249931273 0 0 0
70 24 1 0.7 88.0679695536699 153.36428853001647 110.59732398651417 0 0 0
71 24 2 -0.35 87.24853183850996 154.10416534433978 110.95327922330702 0 0 0
72 24 2 -0.35 88.88740726882983 152.62441171569316 110.24136874972132 0 0 0
73 25 1 0.7 39.22424134343129 36.82425904964295 56.321847349089495 0 0 0
74 25 2 -0.35 38.1804206765031 36.34089279101082 56.17219617031174 0 0 0
75 25 2 -0.35 40.26806201035948 37.30762530827507 56.47149852786725 0 0 0
76 26 1 0.7 116.28839614721407 100.0740462267185 159.4949324575695 0 0 0
77 26 2 -0.35 115.20733000379668 100.37095455174047 159.19703744235557 0 0 0
78 26 2 -0.35 117.36946229063146 99.77713790169652 159.79282747278342 0 0 0
79 27 1 0.7 35.3298143704095 76.19012347245129 79.40520148882884 0 0 0
80 27 2 -0.35 34.483129749345416 76.11588689997828 78.61576239443268 0 0 0
81 27 2 -0.35 36.176498991473586 76.2643600449243 80.194640583225 0 0 0
82 28 1 0.7 79.22142274641499 68.452098996589 157.4278356714304 0 0 0
83 28 2 -0.35 78.3911260171112 69.00665130900533 158.0183262082734 0 0 0
84 28 2 -0.35 80.05171947571877 67.89754668417267 156.83734513458737 0 0 0
85 29 1 0.7 6.634129730348536 7.818377967839305 75.47850547520375 0 0 0
86 29 2 -0.35 5.474757055506991 7.843171792015992 75.50749283647477 0 0 0
87 29 2 -0.35 7.793502405190081 7.793584143662617 75.44951811393273 0 0 0
88 30 1 0.7 89.24152174929227 41.256040355309864 156.27025169286424 0 0 0
89 30 2 -0.35 88.32169625995596 41.30507466733833 155.56518665656537 0 0 0
90 30 2 -0.35 90.1613472386286 41.207006043281396 156.9753167291631 0 0 0
91 31 1 0.7 45.120201969109566 121.23449482453731 123.15451599850995 0 0 0
92 31 2 -0.35 45.43238211074352 120.24895281215936 122.62835014917398 0 0 0
93 31 2 -0.35 44.80802182747561 122.22003683691526 123.68068184784592 0 0 0
94 32 1 0.7 73.95038695677667 56.15358254553452 24.261842798563578 0 0 0
95 32 2 -0.35 73.15901568231257 55.30612779735822 24.227902324988232 0 0 0
96 32 2 -0.35 74.74175823124077 57.001037293710816 24.295783272138923 0 0 0
97 33 1 0.7 104.7919154580645 108.72310368983219 3.2037150097096876 0 0 0
98 33 2 -0.35 103.65078394597282 108.55973792820646 3.333061443907956 0 0 0
99 33 2 -0.35 105.93304697015617 108.88646945145791 3.074368575511419 0 0 0
100 34 1 0.7 150.83816819071686 62.09278137799947 151.37662003719092 0 0 0
101 34 2 -0.35 149.83955056743886 62.040373759145645 150.78872864929286 0 0 0
102 34 2 -0.35 151.83678581399485 62.1451889968533 151.96451142508897 0 0 0
103 35 1 0.7 48.85296506753795 100.78389011033993 119.8410844830056 0 0 0
104 35 2 -0.35 47.70675350681209 100.96209220100422 119.83452148511863 0 0 0
105 35 2 -0.35 49.99917662826381 100.60568801967563 119.84764748089258 0 0 0
106 36 1 0.7 131.10690587531164 7.767046362984481 67.7482226801795 0 0 0
107 36 2 -0.35 130.12627307805516 7.21219816908324 68.02409003719994 0 0 0
108 36 2 -0.35 132.08753867256812 8.321894556885724 67.47235532315905 0 0 0
109 37 1 0.7 126.3785857769561 53.891153301061664 132.61353094345588 0 0 0
110 37 2 -0.35 125.21937911365215 53.888574296787276 132.57071435217784 0 0 0
111 37 2 -0.35 127.53779244026005 53.89373230533605 132.65634753473392 0 0 0
112 38 1 0.7 21.614566663100646 72.02190673259176 134.18645466965924 0 0 0
113 38 2 -0.35 21.65755477207835 72.63118891729775 133.20028671140545 0 0 0
114 38 2 -0.35 21.571578554122944 71.41262454788577 135.17262262791303 0 0 0
115 39 1 0.7 123.74363296280784 57.239205911401285 144.33375292147218 0 0 0
116 39 2 -0.35 122.95504609840442 56.524634919507406 143.87210472767717 0 0 0
117 39 2 -0.35 124.53221982721125 57.953776903295164 144.7954011152672 0 0 0
118 40 1 0.7 11.385351183072363 4.597333897183339 146.39080996037964 0 0 0
119 40 2 -0.35 11.133672923580997 4.637914788095189 147.52245091271047 0 0 0
120 40 2 -0.35 11.637029442563728 4.556753006271489 145.25916900804881 0 0 0
121 41 1 0.7 42.343004100650084 127.86991962598167 152.73915387398523 0 0 0
122 41 2 -0.35 41.82197166991002 128.62264089998473 152.02673834230424 0 0 0
123 41 2 -0.35 42.86403653139015 127.1171983519786 153.45156940566622 0 0 0
124 42 1 0.7 34.959160069916 2.603295078316375 148.58038126331772 0 0 0
125 42 2 -0.35 33.81653973977429 2.4368145952409623 148.69130028739303 0 0 0
126 42 2 -0.35 36.10178040005771 2.7697755613917874 148.4694622392424 0 0 0
127 43 1 0.7 77.46789258088353 8.870606909445769 147.2903270550493 0 0 0
128 43 2 -0.35 78.57295215289103 8.928373216613762 146.94232361243593 0 0 0
129 43 2 -0.35 76.36283300887602 8.812840602277776 147.63833049766265 0 0 0
130 44 1 0.7 112.5268142132679 149.16648239370735 10.06959103982411 0 0 0
131 44 2 -0.35 111.90603535761349 150.04880420042295 9.643279133156572 0 0 0
132 44 2 -0.35 113.1475930689223 148.28416058699176 10.495902946491647 0 0 0
133 45 1 0.7 120.61660632380125 169.30248412783374 26.850736501557165 0 0 0
134 45 2 -0.35 119.49464173440042 169.07049081044136 27.032325490253925 0 0 0
135 45 2 -0.35 121.73857091320208 169.53447744522612 26.669147512860405 0 0 0
136 46 1 0.7 11.328381671257494 73.11074882471503 137.35549698553768 0 0 0
137 46 2 -0.35 11.020632798809249 72.76801968038524 138.4201224432146 0 0 0
138 46 2 -0.35 11.63613054370574 73.45347796904483 136.29087152786076 0 0 0
139 47 1 0.7 33.83783593207497 137.50851038401413 40.53402412521375 0 0 0
140 47 2 -0.35 33.11422599432039 137.65677014407797 41.42845562148869 0 0 0
141 47 2 -0.35 34.56144586982954 137.3602506239503 39.63959262893881 0 0 0
142 48 1 0.7 162.3434724674297 30.741760090804547 85.76184615202335 0 0 0
143 48 2 -0.35 161.33342412013192 30.176782556255958 85.84060351089491 0 0 0
144 48 2 -0.35 163.3535208147275 31.306737625353136 85.6830887931518 0 0 0
145 49 1 0.7 40.34827705628624 118.49248500284389 37.19544279724147 0 0 0
146 49 2 -0.35 40.52844882750213 117.60175058630006 36.474519547483744 0 0 0
147 49 2 -0.35 40.168105285070354 119.38321941938773 37.916366046999194 0 0 0
148 50 1 0.7 138.80709323743687 148.81604160173612 105.21120037893354 0 0 0
149 50 2 -0.35 138.13730112204584 148.02342158648494 105.72959408412608 0 0 0
150 50 2 -0.35 139.4768853528279 149.6086616169873 104.692806673741 0 0 0
151 51 1 0.7 144.6447687361598 108.62814863753884 117.2941511153682 0 0 0
152 51 2 -0.35 143.82085896949872 109.18308726359137 117.8931634839512 0 0 0
153 51 2 -0.35 145.46867850282086 108.07321001148631 116.69513874678519 0 0 0
154 52 1 0.7 74.79779599318178 105.55725740620738 146.82522612755432 0 0 0
155 52 2 -0.35 74.74664953387763 104.3984172561035 146.8338020361281 0 0 0
156 52 2 -0.35 74.84894245248593 106.71609755631127 146.81665021898053 0 0 0
157 53 1 0.7 161.57552580515647 119.86220726457526 144.11749571660417 0 0 0
158 53 2 -0.35 160.53585444373667 119.78436257209908 143.60894516444955 0 0 0
159 53 2 -0.35 162.61519716657628 119.94005195705144 144.62604626875878 0 0 0
160 54 1 0.7 138.75050896627386 52.8041961648521 161.12494266923747 0 0 0
161 54 2 -0.35 138.03029869107905 53.67366456042666 161.39125426981255 0 0 0
162 54 2 -0.35 139.47071924146866 51.93472776927754 160.8586310686624 0 0 0
163 55 1 0.7 70.91144187418345 109.60357940131965 95.35899797936854 0 0 0
164 55 2 -0.35 70.08819811263982 109.43665762083442 96.15900224703161 0 0 0
165 55 2 -0.35 71.73468563572709 109.77050118180487 94.55899371170547 0 0 0
166 56 1 0.7 86.67903924718455 65.61262743063858 143.42922674279157 0 0 0
167 56 2 -0.35 85.53998326161941 65.55774905451742 143.21676539199441 0 0 0
168 56 2 -0.35 87.81809523274968 65.66750580675975 143.64168809358873 0 0 0
169 57 1 0.7 28.013866098138443 66.04751141278423 99.52431466454841 0 0 0
170 57 2 -0.35 26.905524023153657 66.1152669033097 99.18877474393975 0 0 0
171 57 2 -0.35 29.12220817312323 65.97975592225876 99.85985458515708 0 0 0
172 58 1 0.7 154.15656706511814 88.42266344065901 129.7044471561464 0 0 0
173 58 2 -0.35 154.52961485710856 87.41400878480161 130.13924725976673 0 0 0
174 58 2 -0.35 153.78351927312772 89.4313180965164 129.26964705252604 0 0 0
175 59 1 0.7 34.6433533521571 166.83978970434507 18.34556092757059 0 0 0
176 59 2 -0.35 34.387316294936234 165.78302526423218 17.94146447442784 0 0 0
177 59 2 -0.35 34.899390409377965 167.89655414445795 18.749657380713344 0 0 0
178 60 1 0.7 20.84250967895729 92.06017423517079 47.34837051543797 0 0 0
179 60 2 -0.35 19.822701951197303 91.79490654004577 46.863370259433836 0 0 0
180 60 2 -0.35 21.862317406717274 92.32544193029581 47.833370771442105 0 0 0
181 61 1 0.7 121.06325296594913 152.09259870699262 112.30646842499566 0 0 0
182 61 2 -0.35 119.99287755964946 152.3872875680829 112.64270489645305 0 0 0
183 61 2 -0.35 122.13362837224881 151.79790984590232 111.97023195353826 0 0 0
184 62 1 0.7 36.81481890185495 68.66128347612046 82.1913831565489 0 0 0
185 62 2 -0.35 37.3788716973577 69.47239459354947 82.79928380556039 0 0 0
186 62 2 -0.35 36.250766106352195 67.85017235869145 81.5834825075374 0 0 0
187 63 1 0.7 52.576712117333294 99.80055602071832 8.945040212918558 0 0 0
188 63 2 -0.35 51.51284332006817 100.22574543096111 8.76338904275151 0 0 0
189 63 2 -0.35 53.64058091459842 99.37536661047552 9.126691383085605 0 0 0
190 64 1 0.7 30.290858522192973 31.459182497327767 2.480232587773461 0 0 0
191 64 2 -0.35 30.331105851865036 32.366321910346265 1.758375096434123 0 0 0
192 64 2 -0.35 30.25061119252091 30.55204308430927 3.202090079112799 0 0 0
193 65 1 0.7 132.26910270856186 46.80922279917133 122.60758567257206 0 0 0
194 65 2 -0.35 132.5391109608438 46.19541647649559 123.55412533996214 0 0 0
195 65 2 -0.35 131.99909445627992 47.42302912184707 121.66104600518197 0 0 0
196 66 1 0.7 115.69239891864937 1.1486257399193132 152.95281082389542 0 0 0
197 66 2 -0.35 114.94959151607814 1.3754532994507394 152.09119233470057 0 0 0
198 66 2 -0.35 116.4352063212206 0.9217981803878871 153.81442931309027 0 0 0
199 67 1 0.7 34.8915172102356 62.72975242963514 83.94908487794413 0 0 0
200 67 2 -0.35 34.49529170892501 61.73840758937572 83.49538810717956 0 0 0
201 67 2 -0.35 35.28774271154619 63.721097269894564 84.4027816487087 0 0 0
202 68 1 0.7 11.269543606913436 110.21940139411922 14.479230961519866 0 0 0
203 68 2 -0.35 10.61484564826162 110.88510442397073 13.79089233919531 0 0 0
204 68 2 -0.35 11.924241565565252 109.5536983642677 15.167569583844422 0 0 0
205 69 1 0.7 19.434770264399596 30.183833764020278 113.6940718887812 0 0 0
206 69 2 -0.35 18.33240149530149 30.240043915077035 114.05075594482422 0 0 0
207 69 2 -0.35 20.537139033497702 30.12762361296352 113.33738783273817 0 0 0
208 70 1 0.7 102.26623474539548 67.6073658618179 152.9980395734301 0 0 0
209 70 2 -0.35 101.15246437655036 67.68548216751759 152.6833756125664 0 0 0
210 70 2 -0.35 103.3800051142406 67.5292495561182 153.3127035342938 0 0 0
211 71 1 0.7 111.05111063972633 142.01652188041086 53.683244065234085 0 0 0
212 71 2 -0.35 112.09443181030879 141.57744588793122 53.93680511871523 0 0 0
213 71 2 -0.35 110.00778946914387 142.4555978728905 53.42968301175294 0 0 0
214 72 1 0.7 58.283004389276265 74.45477056617605 154.32890572088255 0 0 0
215 72 2 -0.35 57.12575992036854 74.47305339229945 154.40669374985495 0 0 0
216 72 2 -0.35 59.44024885818399 74.43648774005266 154.25111769191014 0 0 0
217 73 1 0.7 77.9184508728415 57.403819847108714 4.000170356128445 0 0 0
218 73 2 -0.35 77.86656373230902 58.49779461965787 4.382435868139918 0 0 0
219 73 2 -0.35 77.97033801337399 56.30984507455956 3.6179048441169717 0 0 0
220 74 1 0.7 27.863175450760487 98.38980093150856 67.38425586437074 0 0 0
221 74 2 -0.35 26.713824705565152 98.48541614457112 67.25995543979411 0 0 0
222 74 2 -0.35 29.01252619595582 98.294185718446 67.50855628894737 0 0 0
223 75 1 0.7 165.18831247891686 134.96783315575115 89.3718487095888 0 0 0
224 75 2 -0.35 164.6510226100519 134.2755092489463 88.61184396954995 0 0 0
225 75 2 -0.35 165.7256023477818 135.660157062556 90.13185344962766 0 0 0
226 76 1 0.7 8.661262058960862 48.83142495520014 80.75922204868833 0 0 0
227 76 2 -0.35 9.618676290886597 49.16009432479307 81.32573280233511 0 0 0
228 76 2 -0.35 7.703847827035127 48.50275558560721 80.19271129504155 0 0 0
229 77 1 0.7 93.2449723045551 124.24952265771549 9.727308224294012 0 0 0
230 77 2 -0.35 92.4254417859125 124.85502987946914 9.172934042520055 0 0 0
231 77 2 -0.35 94.06450282319771 123.64401543596183 10.281682406067969 0 0 0
232 78 1 0.7 10.869325709468372 52.75719903491307 55.24417978396834 0 0 0
233 78 2 -0.35 11.005278298014545 52.24994061938406 54.20986561818379 0 0 0
234 78 2 -0.35 10.733373120922199 53.26445745044208 56.27849394975289 0 0 0
235 79 1 0.7 129.92962915586756 57.2772226660872 99.28134892754319 0 0 0
236 79 2 -0.35 129.01669206677937 56.6534055916671 98.93063803659578 0 0 0
237 79 2 -0.35 130.84256624495575 57.901039740507294 99.6320598184906 0 0 0
238 80 1 0.7 3.631425218485028 157.3636470778676 124.8164377207013 0 0 0
239 80 2 -0.35 4.56653456741605 156.7705326469174 125.1619601907961 0 0 0
240 80 2 -0.35 2.6963158695540055 157.9567615088178 124.47091525060651 0 0 0
241 81 1 0.7 132.86877182678728 36.44809281381224 61.095921742308846 0 0 0
242 81 2 -0.35 132.12476809946642 37.28388013353393 61.40172888729585 0 0 0
243 81 2 -0.35 133.61277555410814 35.61230549409055 60.79011459732184 0 0 0
244 82 1 0.7 155.15672298481536 140.0432057916388 62.1597400732151 0 0 0
245 82 2 -0.35 155.43212183261713 139.00350809130288 62.59423307263589 0 0 0
246 82 2 -0.35 154.8813241370136 141.08290349197472 61.72524707379431 0 0 0
247 83 1 0.7 79.75141052610772 83.95671229248713 139.46349983125157 0 0 0
248 83 2 -0.35 78.86813286439047 84.0053362102628 138.71312906494236 0 0 0
249 83 2 -0.35 80.63468818782496 83.90808837471145 140.21387059756077 0 0 0
250 84 1 0.7 66.0416638450891 1.244244412632773 50.01584311901399 0 0 0
251 84 2 -0.35 67.19277025532128 1.1009091325853682 50.01283815376948 0 0 0
252 84 2 -0.35 64.89055743485693 1.3875796926801778 50.018848084258494 0 0 0
253 85 1 0.7 151.2753012679868 55.98841105400977 155.22458474208815 0 0 0
254 85 2 -0.35 152.18127888290624 55.30831124877431 154.97504753808124 0 0 0
255 85 2 -0.35 150.36932365306737 56.668510859245224 155.47412194609507 0 0 0
256 86 1 0.7 83.59576027542155 57.94294901003267 2.144011619102215 0 0 0
257 86 2 -0.35 82.9604096197702 58.25808926966301 3.0619528814515666 0 0 0
258 86 2 -0.35 84.2311109310729 57.62780875040233 1.2260703567528637 0 0 0
259 87 1 0.7 124.40328225093114 28.964791399876024 145.2490577163403 0 0 0
260 87 2 -0.35 124.08984682005799 28.455752571147944 146.24315917068012 0 0 0
261 87 2 -0.35 124.7167176818043 29.473830228604104 144.2549562620005 0 0 0
262 88 1 0.7 4.9130385317434735 151.43860301256115 64.60083211520725 0 0 0
263 88 2 -0.35 4.917689258242012 151.17974598202989 63.47009279578497 0 0 0
264 88 2 -0.35 4.908387805244935 151.6974600430924 65.73157143462954 0 0 0
265 89 1 0.7 67.18536028833378 71.3503660258606 133.60179663896645 0 0 0
266 89 2 -0.35 66.40926562822838 71.84303084598697 132.8942950816779 0 0 0
267 89 2 -0.35 67.96145494843918 70.85770120573422 134.30929819625499 0 0 0
268 90 1 0.7 44.39611110901279 92.43940917795496 94.15005388909488 0 0 0
269 90 2 -0.35 45.15024898325341 91.66365447686151 94.56848035858174 0 0 0
270 90 2 -0.35 43.64197323477217 93.2151638790484 93.73162741960802 0 0 0
271 91 1 0.7 116.95571401759783 29.68549376664939 117.09373607630549 0 0 0
272 91 2 -0.35 115.94969602398157 29.48700138384991 116.55139986094558 0 0 0
273 91 2 -0.35 117.96173201121408 29.88398614944887 117.6360722916654 0 0 0
274 92 1 0.7 126.42223446649602 103.4946783988246 23.05984904526726 0 0 0
275 92 2 -0.35 125.53625477529397 103.20218098888242 23.74911332836528 0 0 0
276 92 2 -0.35 127.30821415769807 103.78717580876679 22.37058476216924 0 0 0
277 93 1 0.7 80.88290380681069 119.96428106723552 149.67189702748874 0 0 0
278 93 2 -0.35 79.72390778425182 119.9170927513464 149.6819708815817 0 0 0
279 93 2 -0.35 82.04189982936956 120.01146938312463 149.6618231733958 0 0 0
280 94 1 0.7 125.57334100342047 29.14224448760145 49.70310311750654 0 0 0
281 94 2 -0.35 125.66279606169262 28.479947239867126 50.65123820713937 0 0 0
282 94 2 -0.35 125.48388594514832 29.80454173533577 48.7549680278737 0 0 0
283 95 1 0.7 25.0540959323077 82.19033429547694 34.94850408097194 0 0 0
284 95 2 -0.35 23.903204162491374 82.05164051064868 34.99107365013885 0 0 0
285 95 2 -0.35 26.204987702124026 82.3290280803052 34.90593451180502 0 0 0
286 96 1 0.7 165.50808889535634 37.45006425373725 143.2299125619372 0 0 0
287 96 2 -0.35 164.88990811512463 37.78519017273545 144.15248675481695 0 0 0
288 96 2 -0.35 166.12626967558805 37.11493833473906 142.30733836905745 0 0 0
289 97 1 0.7 98.1404284784293 151.18143696113555 17.41100580543792 0 0 0
290 97 2 -0.35 98.13243082993878 151.64290464752793 16.346776689112737 0 0 0
291 97 2 -0.35 98.14842612691982 150.71996927474316 18.475234921763104 0 0 0
292 98 1 0.7 45.774571995145905 4.231522417269425 154.19726704722143 0 0 0
293 98 2 -0.35 45.48312158708692 3.647765476992022 155.15637313849612 0 0 0
294 98 2 -0.35 46.06602240320489 4.815279357546829 153.23816095594674 0 0 0
295 99 1 0.7 88.4672626505919 24.283368498218884 124.5743495647676 0 0 0
296 99 2 -0.35 87.3699610330137 24.007716697506446 124.31833150910703 0 0 0
297 99 2 -0.35 89.56456426817012 24.559020298931323 124.83036762042818 0 0 0
298 100 1 0.7 168.09313504914434 50.320770968832434 146.19767316672844 0 0 0
299 100 2 -0.35 167.82554452946314 51.43764448973123 146.03461228211205 0 0 0
300 100 2 -0.35 168.36072556882553 49.20389744793364 146.36073405134482 0 0 0
301 101 1 0.7 45.29291320466107 116.99223073850955 130.4220221300712 0 0 0
302 101 2 -0.35 44.42177710156865 116.89686276566572 129.6620044726154 0 0 0
303 101 2 -0.35 46.16404930775349 117.08759871135338 131.18203978752703 0 0 0
304 102 1 0.7 124.92594010658838 92.27537143103562 73.16764141580447 0 0 0
305 102 2 -0.35 126.02126053741526 92.6572204570119 73.15961177233721 0 0 0
306 102 2 -0.35 123.83061967576151 91.89352240505934 73.17567105927172 0 0 0
307 103 1 0.7 67.54927542551853 31.672076689858027 160.59292644383055 0 0 0
308 103 2 -0.35 66.52317224615528 31.13239816996465 160.55472486707868 0 0 0
309 103 2 -0.35 68.57537860488178 32.2117552097514 160.63112802058242 0 0 0
310 104 1 0.7 21.314741460287358 162.85972304961632 157.36529490135857 0 0 0
311 104 2 -0.35 20.155146602233764 162.88156316505248 157.34378270636594 0 0 0
312 104 2 -0.35 22.474336318340953 162.83788293418016 157.3868070963512 0 0 0
313 105 1 0.7 152.51140713342997 140.21969155744637 121.3560060008224 0 0 0
314 105 2 -0.35 151.63146393399873 140.86575030894912 120.96369482919785 0 0 0
315 105 2 -0.35 153.3913503328612 139.57363280594362 121.74831717244696 0 0 0
316 106 1 0.7 113.39285582229164 169.72780525531982 164.22292616042444 0 0 0
317 106 2 -0.35 112.2628267488258 169.6492314371331 163.97300527650816 0 0 0
318 106 2 -0.35 114.52288489575747 169.80637907350655 164.4728470443407 0 0 0
319 107 1 0.7 154.71997825369237 152.6745098078039 145.4863397602394 0 0 0
320 107 2 -0.35 155.4189707668695 151.757031767504 145.6098043790166 0 0 0
321 107 2 -0.35 154.02098574051524 153.5919878481038 145.36287514146218 0 0 0
322 108 1 0.7 59.91235034349949 98.87222319602604 138.45525560968335 0 0 0
323 108 2 -0.35 61.06340314803032 98.9165497786774 138.592049598046 0 0 0
324 108 2 -0.35 58.76129753896866 98.82789661337468 138.3184616213207 0 0 0
325 109 1 0.7 49.48103194799322 54.703949922092235 113.28634060420391 0 0 0
326 109 2 -0.35 48.33312428737642 54.805147388190186 113.15342305249376 0 0 0
327 109 2 -0.35 50.628939608610025 54.602752455994285 113.41925815591406 0 0 0
328 110 1 0.7 89.52653485514527 43.47131042670054 110.31434155596156 0 0 0
329 110 2 -0.35 90.29777763271794 44.23652682679698 110.72082456798722 0 0 0
330 110 2 -0.35 88.7552920775726 42.7060940266041 109.9078585439359 0 0 0
331 111 1 0.7 71.1385310460527 164.29129100790772 106.72796990523487 0 0 0
332 111 2 -0.35 70.29967927926245 164.58404906983662 107.47377177606148 0 0 0
333 111 2 -0.35 71.97738281284296 163.9985329459788 105.98216803440826 0 0 0
334 112 1 0.7 157.99019728227992 53.24572327884181 57.871147494237476 0 0 0
335 112 2 -0.35 157.11496702276304 52.53090283447748 58.13307062254954 0 0 0
336 112 2 -0.35 158.8654275417968 53.960543723206136 57.609224365925414 0 0 0
337 113 1 0.7 163.37593564920869 112.35045625052902 92.11820264119571 0 0 0
338 113 2 -0.35 162.38378447826318 112.92721816498421 92.2872640147423 0 0 0
339 113 2 -0.35 164.3680868201542 111.77369433607383 91.94914126764911 0 0 0
340 114 1 0.7 167.6317905763312 162.50421639881293 167.36501484893498 0 0 0
341 114 2 -0.35 166.54913300701068 162.24184712281277 167.04157250383443 0 0 0
342 114 2 -0.35 168.71444814565174 162.7665856748131 167.68845719403552 0 0 0
343 115 1 0.7 124.80456604985733 104.34159995212295 64.27039533027933 0 0 0
344 115 2 -0.35 125.71819093087646 104.47594639804896 63.56836925579931 0 0 0
345 115 2 -0.35 123.8909411688382 104.20725350619693 64.97242140475934 0 0 0
346 116 1 0.7 156.53431600450273 37.24908767745322 14.416594956264177 0 0 0
347 116 2 -0.35 156.7633952670112 36.1740553316847 14.045881931081603 0 0 0
348 116 2 -0.35 156.30523674199426 38.32412002322174 14.787307981446752 0 0 0
349 117 1 0.7 163.71142993202034 108.00286746584011 39.193498374984365 0 0 0
350 117 2 -0.35 163.9019538941632 107.89118530074403 38.05471493909814 0 0 0
351 117 2 -0.35 163.52090596987748 108.1145496309362 40.33228181087059 0 0 0
352 118 1 0.7 33.12718836224041 163.65480417462754 11.29376296526462 0 0 0
353 118 2 -0.35 31.972596525339103 163.72759657388497 11.378727409423439 0 0 0
354 118 2 -0.35 34.281780199141714 163.58201177537012 11.2087985211058 0 0 0
355 119 1 0.7 4.274157202464602 15.760101822558838 1.0313317463879155 0 0 0
356 119 2 -0.35 5.271252926251722 16.186718119656746 1.4429124221440879 0 0 0
357 119 2 -0.35 3.2770614786774828 15.333485525460928 0.6197510706317432 0 0 0
358 120 1 0.7 62.59266154169694 2.862531300570132 59.5635686822066 0 0 0
359 120 2 -0.35 61.94060815599266 1.9781093902986715 59.93535392508664 0 0 0
360 120 2 -0.35 63.24471492740122 3.7469532108415926 59.191783439326564 0 0 0
361 121 1 0.7 50.898841846221515 114.83490944506363 124.32304318450532 0 0 0
362 121 2 -0.35 49.85350242264966 114.35412616865413 124.47039626608634 0 0 0
363 121 2 -0.35 51.94418126979337 115.31569272147313 124.1756901029243 0 0 0
364 122 1 0.7 48.386801981081625 131.9808960389257 161.91972622411313 0 0 0
365 122 2 -0.35 47.433658677054076 131.39065382792094 161.6218470970571 0 0 0
366 122 2 -0.35 49.339945285109174 132.57113824993044 162.21760535116917 0 0 0
367 123 1 0.7 90.83864866934654 37.16818570726001 22.697181918982963 0 0 0
368 123 2 -0.35 90.82965679367074 37.702567254829546 21.66764051243876 0 0 0
369 123 2 -0.35 90.84764054502234 36.63380415969047 23.726723325527168 0 0 0
370 124 1 0.7 141.53651234672242 23.16301136378339 104.7319911074508 0 0 0
371 124 2 -0.35 140.38443481874646 23.260151269661794 104.8262312699015 0 0 0
372 124 2 -0.35 142.68858987469838 23.065871457904986 104.63775094500009 0 0 0
373 125 1 0.7 127.57454292549497 147.34294879405897 141.9403817490397 0 0 0
374 125 2 -0.35 126.69557342865674 147.7226412909891 141.2855182278363 0 0 0
375 125 2 -0.35 128.4535124223332 146.96325629712885 142.59524527024308 0 0 0
376 126 1 0.7 141.99605611013067 51.71504296581961 152.72712653024453 0 0 0
377 126 2 -0.35 141.35192347318963 50.81948692689591 153.08583606060952 0 0 0
378 126 2 -0.35 142.6401887470717 52.610599004743314 152.36841699987954 0 0 0
379 127 1 0.7 3.815593819979389 3.6853323935928444 37.38153911492859 0 0 0
380 127 2 -0.35 3.4651316896482447 4.635116174949082 37.94783149866371 0 0 0
381 127 2 -0.35 4.166055950310533 2.7355486122366064 36.815246731193476 0 0 0
382 128 1 0.7 17.527904604807453 129.49269299883986 66.6912315016106 0 0 0
383 128 2 -0.35 16.61946581119103 128.96867760987558 66.19550291621195 0 0 0
384 128 2 -0.35 18.436343398423876 130.01670838780413 67.18696008700925 0 0 0
385 129 1 0.7 145.52784756921596 73.53409581283763 70.54832636217975 0 0 0
386 129 2 -0.35 144.4673436092591 73.99890239601106 70.61822765797943 0 0 0
387 129 2 -0.35 146.58835152917283 73.06928922966421 70.47842506638007 0 0 0
388 130 1 0.7 162.72116915496122 51.6899874329986 73.6187864074571 0 0 0
389 130 2 -0.35 161.65132982747048 51.46379195806827 73.2316437716299 0 0 0
390 130 2 -0.35 163.79100848245196 51.91618290792893 74.00592904328428 0 0 0
391 131 1 0.7 125.94315013147106 88.52425963409443 127.231670225147 0 0 0