LAMMPS data file via write_data, version 29 Aug 2024, timestep = 4000000, units = real

1500 atoms
2 atom types
1000 bonds
1 bond types
500 angles
1 angle types

0 171 xlo xhi
0 171 ylo yhi
0 171 zlo zhi

Masses

1 12.0107
2 15.9994

PairIJ Coeffs # lj/cut/coul/long/gpu

1 1 0.053649 2.8 12
1 2 0.0917684 2.925 12
2 2 0.156973 3.05 12

Bond Coeffs # harmonic

1 0 1.16

Angle Coeffs # harmonic

1 0 180

Atoms # full

169 57 1 0.7 10.100676972069131 11.965042979270255 10.076699303499803 0 -1 -3
171 57 2 -0.35 11.072089820800647 11.665074727166205 9.51815107366912 0 -1 -3
170 57 2 -0.35 9.129264123337613 12.265011231374302 10.635247533330483 0 -1 -3
716 239 2 -0.35 64.09014455165855 2.0483669138955687 0.8542892374821288 -1 -1 3
440 147 2 -0.35 161.41669333655287 14.305960709829034 3.7964552351365537 10 -5 3
441 147 2 -0.35 162.3609805628016 12.247058703113495 3.2948137684637206 10 -5 3
439 147 1 0.7 161.88883694967723 13.276509706471264 3.545634501800137 10 -5 3
483 161 2 -0.35 43.145346549559555 24.76324117927371 6.857498077168452 -7 4 -4
481 161 1 0.7 43.744832035096586 25.739984027810536 6.678080796883649 -7 4 -4
482 161 2 -0.35 44.34431752063362 26.716726876347362 6.498663516598847 -7 4 -4
1417 473 1 0.7 34.28329640778469 20.223289083536045 0.05109202896808539 2 3 0
1418 473 2 -0.35 33.920645355722975 20.43384503549162 1.1326420303707034 2 3 0
743 248 2 -0.35 61.48635905818181 31.41602009668532 5.327048446413148 -3 2 -1
742 248 1 0.7 62.28828026711157 31.322287020338777 6.159956895803509 -3 2 -1
744 248 2 -0.35 63.090201476041315 31.22855394399224 6.99286534519387 -3 2 -1
1492 498 1 0.7 153.58175490195237 17.434928920274864 0.9702519153516045 -6 -3 -8
1494 498 2 -0.35 154.63974856877536 17.557779021307283 1.4297704173086005 -6 -3 -8
735 245 2 -0.35 157.24152801477112 22.91972484491193 169.7962255786869 4 0 -1
1404 468 2 -0.35 21.8644972324339 43.61573338210323 1.8769824252406726 5 12 0
1403 468 2 -0.35 21.60876051410907 45.91234849207632 1.6706870846597954 5 12 0
1402 468 1 0.7 21.736628873271485 44.764040937089774 1.773834754950234 5 12 0
163 55 1 0.7 35.37989669733781 46.933021320823116 7.410303755483937 -2 0 3
165 55 2 -0.35 35.498545583804244 45.884581700570564 6.928331967487138 -2 0 3
455 152 2 -0.35 62.718255360609405 34.86823481164664 1.0012073355241955 5 7 -2
454 152 1 0.7 61.8086064592102 35.53308307176945 1.2770980153126315 5 7 -2
456 152 2 -0.35 60.898957557810995 36.197931331892256 1.5529886951010674 5 7 -2
597 199 2 -0.35 93.80683595441428 40.71501178952071 4.335415731471144 0 -8 2
596 199 2 -0.35 92.48317218995916 38.91651986125212 4.9644952356896805 0 -8 2
595 199 1 0.7 93.14500407218672 39.815765825386414 4.649955483580412 0 -8 2
1295 432 2 -0.35 127.14136083873274 32.61195040101865 15.361008110170156 -6 -6 3
1081 361 1 0.7 15.722207617091787 61.79508517759967 2.1775969017064787 -1 6 0
1083 361 2 -0.35 16.361953959635095 60.82940349846392 2.239107159271761 -1 6 0
164 55 2 -0.35 35.26124781087138 47.98146094107566 7.892275543480734 -2 0 3
292 98 1 0.7 72.91102696163321 54.365459626784755 2.5847653897213547 6 -4 3
293 98 2 -0.35 72.52045109257432 55.456903780204705 2.62719356991032 6 -4 3
294 98 2 -0.35 73.3016028306921 53.274015473364805 2.5423372095323895 6 -4 3
363 121 2 -0.35 80.56913667103429 51.2607817570069 13.27893787023936 6 -2 7
361 121 1 0.7 79.73217200659805 50.99897076460199 14.038243575961948 6 -2 7
1074 358 2 -0.35 87.63695603911994 47.99976524917333 10.478654214059585 8 4 -2
1072 358 1 0.7 86.5330834053594 48.0296604374807 10.123447955457154 8 4 -2
1073 358 2 -0.35 85.42921077159889 48.05955562578808 9.768241696854723 8 4 -2
362 121 2 -0.35 78.8952073421618 50.737159772197074 14.797549281684535 6 -2 7
1278 426 2 -0.35 139.49942098235283 53.59885381975927 4.4908054906632175 -5 -2 -1
1276 426 1 0.7 139.92853717019727 52.59907814842878 4.893183303600155 -5 -2 -1
1277 426 2 -0.35 140.35765335804172 51.59930247709829 5.295561116537094 -5 -2 -1
386 129 2 -0.35 127.01201451258021 63.163057010465835 9.432868117567928 -4 -6 3
385 129 1 0.7 127.51032447958208 62.12233060950866 9.551930013815173 -4 -6 3
387 129 2 -0.35 128.00863444658395 61.08160420855148 9.670991910062419 -4 -6 3
1185 395 2 -0.35 149.39479929049944 60.24345726468557 7.778994849747822 5 -2 -2
1183 395 1 0.7 148.84968355747694 61.23134295800401 7.50967961708177 5 -2 -2
1184 395 2 -0.35 148.30456782445447 62.21922865132245 7.2403643844157175 5 -2 -2
993 331 2 -0.35 145.8746169004549 56.13237966715497 16.410622828190405 8 1 7
984 328 2 -0.35 170.2705613432018 60.5812841016127 14.703550226109554 5 -5 2
982 328 1 0.7 169.42293538473882 61.274563649308185 14.320805267572213 5 -5 2
983 328 2 -0.35 168.57530942627585 61.96784319700367 13.938060309034872 5 -5 2
1082 361 2 -0.35 15.082461274548479 62.76076685673541 2.116086644141196 -1 6 0
153 51 2 -0.35 21.658663346702284 73.55263865118042 3.1353652741925293 5 -1 13
151 51 1 0.7 21.083656775304334 73.850831687036 2.1730512110012223 5 -1 13
152 51 2 -0.35 20.508650203906384 74.1490247228916 1.2107371478099154 5 -1 13
549 183 2 -0.35 37.334561987736905 71.6651267946602 170.75974926922348 -6 6 5
547 183 1 0.7 37.37600891876779 70.6945225751197 0.39363380201953285 -6 6 6
1280 427 2 -0.35 70.00665806706046 64.87450043153866 2.8567952758391826 0 -1 -2
1279 427 1 0.7 69.21417498187446 65.18253466288377 3.6458994971017846 0 -1 -2
1281 427 2 -0.35 68.42169189668849 65.49056889422887 4.435003718364387 0 -1 -2
707 236 2 -0.35 88.5321140922255 63.18787696718375 12.05766254831876 1 -2 -2
706 236 1 0.7 87.88781232095273 63.65555627110185 12.901316088714498 1 -2 -2
708 236 2 -0.35 87.24351054967997 64.12323557501996 13.744969629110235 1 -2 -2
1309 437 1 0.7 121.61282706198857 71.42590556765376 1.5257279761174565 2 4 -3
1310 437 2 -0.35 121.39440015881402 70.34062807235219 1.8722282591784114 2 4 -3
1311 437 2 -0.35 121.8312539651631 72.51118306295534 1.1792276930565015 2 4 -3
539 180 2 -0.35 133.09375860960904 62.523213662539085 11.453530446720222 0 5 -2
538 180 1 0.7 132.95362371383618 62.42576771049503 10.30615670751476 0 5 -2
540 180 2 -0.35 132.81348881806332 62.328321758450976 9.158782968309296 0 5 -2
117 39 2 -0.35 163.55172856073142 72.5750030620713 3.338677728798971 2 -2 -1
116 39 2 -0.35 164.14165841906797 74.57645425290492 2.324490422161342 2 -2 -1
115 39 1 0.7 163.8466934898997 73.57572865748811 2.8315840754801567 2 -2 -1
1008 336 2 -0.35 70.2058466211999 80.52964838963132 13.943680615558437 4 -1 0
1006 336 1 0.7 71.3611064013464 80.4422072786827 13.885984060277945 4 -1 0
1007 336 2 -0.35 72.51636618149291 80.35476616773407 13.828287504997451 4 -1 0
1022 341 2 -0.35 89.45100576077445 94.50785397252108 15.159839498535732 3 -2 -1
727 243 1 0.7 29.282982785935257 104.39890556685471 12.363894281249372 -7 -5 0
729 243 2 -0.35 30.278367569678444 104.99025078159376 12.43544824199327 -7 -5 0
728 243 2 -0.35 28.28759800219207 103.80756035211566 12.292340320505474 -7 -5 0
1274 425 2 -0.35 60.1354690824775 96.89937818352246 10.061808642931242 2 0 -3
1273 425 1 0.7 61.06140991227239 97.59680985768344 10.104501026248743 2 0 -3
1275 425 2 -0.35 61.987350742067285 98.29424153184442 10.147193409566242 2 0 -3
1021 341 1 0.7 90.1297105360085 94.66051359399654 14.231585832750387 3 -2 -1
1023 341 2 -0.35 90.80841531124257 94.81317321547202 13.30333216696504 3 -2 -1
637 213 1 0.7 165.42322731515543 103.56508611342045 7.914176513379827 3 1 1
639 213 2 -0.35 166.32981187188707 103.1250606094978 7.3396488835878735 3 1 1
638 213 2 -0.35 164.51664275842379 104.0051116173431 8.48870414317178 3 1 1
1362 454 2 -0.35 24.280581464707414 116.99599783507813 4.291895534333183 -12 2 0
1360 454 1 0.7 24.532237331763096 115.96089834311903 3.8327241433204673 -12 2 0
1361 454 2 -0.35 24.78389319881878 114.92579885115991 3.3735527523077518 -12 2 0
670 224 1 0.7 11.11573077583821 134.02900742694092 7.527814081888598 1 -6 7
672 224 2 -0.35 10.490253492988197 133.98849475060422 6.551731661344835 1 -6 7
671 224 2 -0.35 11.741208058688226 134.06952010327763 8.503896502432362 1 -6 7
930 310 2 -0.35 37.16657111307324 140.76677690578995 3.3997836959528325 2 5 3
928 310 1 0.7 38.29663139130068 140.5307534883491 3.5131711467186846 2 5 3
929 310 2 -0.35 39.42669166952812 140.29473007090823 3.6265585974845362 2 5 3
1463 488 2 -0.35 108.59472299881881 138.7045524680446 1.8402923330825616 -8 1 8
1462 488 1 0.7 109.1392851235099 139.13192834191074 2.771099485391116 -8 1 8
1464 488 2 -0.35 109.68384724820099 139.55930421577685 3.701906637699671 -8 1 8
224 75 2 -0.35 72.82631537023892 153.56918775334813 6.61522740029546 3 0 6
223 75 1 0.7 73.63767703962209 152.74076329736243 6.583523107498821 3 0 6
225 75 2 -0.35 74.44903870900528 151.9123388413767 6.551818814702182 3 0 6
1450 484 1 0.7 112.25372058517543 146.27561634527214 0.17033037023916123 -6 1 0
1452 484 2 -0.35 111.85394029673368 145.98885857044013 1.2208282043861203 -6 1 0
859 287 1 0.7 22.37239936366627 160.68069589983537 10.735449403105344 -2 -9 2
860 287 2 -0.35 23.30245396257961 160.68729712962138 10.042228755111031 -2 -9 2
861 287 2 -0.35 21.442344764752928 160.67409467004936 11.428670051099656 -2 -9 2
89 30 2 -0.35 68.79689150621967 164.29568539358976 7.0375220784716594 -3 -2 -7
90 30 2 -0.35 70.85726105815321 165.25385245162798 6.569341345899515 -3 -2 -7
88 30 1 0.7 69.82707628218644 164.77476892260887 6.803431712185587 -3 -2 -7
383 128 2 -0.35 120.89072241761187 159.1859128618306 10.572380461433834 -7 5 7
384 128 2 -0.35 119.02663774299714 160.27075646927307 9.717568977379612 -7 5 7
382 128 1 0.7 119.9586800803045 159.72833466555184 10.144974719406722 -7 5 7
1249 417 1 0.7 129.6207249487999 161.04733672521786 14.900662057760014 0 -6 0
1250 417 2 -0.35 130.20226841613513 160.05172692469964 14.77350734604037 0 -6 0
1251 417 2 -0.35 129.03918148146468 162.04294652573608 15.02781676947966 0 -6 0
1055 352 2 -0.35 49.02556269207166 170.43263579266852 29.61739640404304 -2 -6 0
491 164 2 -0.35 89.8843206465136 8.894003405739184 26.104528070798317 6 -1 -1
490 164 1 0.7 89.52823556001263 7.993219522363061 25.466255553278614 6 -1 -1
492 164 2 -0.35 89.17215047351168 7.092435638986938 24.827983035758912 6 -1 -1
342 114 2 -0.35 159.98662020435384 10.335512587888282 25.77716202613738 -3 -2 -4
340 114 1 0.7 161.00424461048266 9.867593191714697 25.47534750240516 -3 -2 -4
341 114 2 -0.35 162.0218690166115 9.399673795541112 25.173532978672938 -3 -2 -4
1302 434 2 -0.35 4.713845452521229 21.069190172997672 26.434043270303665 8 -7 3
1300 434 1 0.7 4.342184090763087 20.080671546943115 25.95414874218543 8 -7 3
1301 434 2 -0.35 3.970522729004945 19.092152920888555 25.474254214067198 8 -7 3
104 35 2 -0.35 80.85219991029571 25.61555111735207 31.266863053835255 -1 6 -1
103 35 1 0.7 80.07421587417575 25.732534976898922 30.41442207866529 -1 6 -1
105 35 2 -0.35 79.29623183805579 25.849518836445775 29.561981103495324 -1 6 -1
167 56 2 -0.35 108.80340036932415 22.26855562394713 21.35403616524998 4 2 2
166 56 1 0.7 109.45913525157944 23.135991645680875 20.950097416931754 4 2 2
683 228 2 -0.35 115.33190522371363 27.98812447350236 20.526284508493152 -2 4 3
168 56 2 -0.35 110.11487013383473 24.00342766741462 20.54615866861353 4 2 2
684 228 2 -0.35 116.79619132988022 26.829066853369483 19.149748409256443 -2 4 3
682 228 1 0.7 116.06404827679692 27.40859566343592 19.838016458874797 -2 4 3
299 100 2 -0.35 61.6925620840372 35.79215158825081 25.965500507623577 1 1 -4
298 100 1 0.7 60.665197016338034 35.51758108070863 25.5021086064633 1 1 -4
300 100 2 -0.35 59.63783194863887 35.24301057316645 25.038716705303024 1 1 -4
1433 478 2 -0.35 66.44279566984036 41.24117402873103 27.791533731744686 3 -1 5
1434 478 2 -0.35 67.5921111599298 41.055240962884135 29.79824816067257 3 -1 5
1432 478 1 0.7 67.01745341488508 41.14820749580758 28.79489094620863 3 -1 5
231 77 2 -0.35 114.55649401841019 33.55594278519745 22.15358017569514 -4 4 1
230 77 2 -0.35 116.31293834271128 33.44168296144634 23.664953070883904 -4 4 1
229 77 1 0.7 115.43471618056073 33.498812873321896 22.909266623289522 -4 4 1
1294 432 1 0.7 128.25601014159568 32.299185410926874 15.434049143844542 -6 -6 3
1296 432 2 -0.35 129.3706594444586 31.98642042083509 15.50709017751893 -6 -6 3
1157 386 2 -0.35 147.54362957525655 45.81865524358241 19.547492209228736 2 -2 -4
1158 386 2 -0.35 145.32714308162005 45.60108484206821 18.897683972973358 2 -2 -4
1156 386 1 0.7 146.4353863284383 45.709870042825315 19.222588091101045 2 -2 -4
319 107 1 0.7 24.273393594378103 57.99619503032875 23.26341319980147 0 -1 2
320 107 2 -0.35 23.82280008023971 56.95192221093259 23.491579287745473 0 -1 2
321 107 2 -0.35 24.723987108516496 59.04046784972492 23.035247111857462 0 -1 2
476 159 2 -0.35 32.6929291468046 52.11462333093959 20.008432177089514 -5 -2 4
477 159 2 -0.35 34.15574366719292 53.55754907910603 21.085715317317433 -5 -2 4
475 159 1 0.7 33.42433640699876 52.83608620502281 20.547073747203473 -5 -2 4
1261 421 1 0.7 33.167664627513794 55.204016087503526 27.09682252898722 -6 -6 8
1263 421 2 -0.35 32.18958010641717 54.841821092413184 26.589116457403453 -6 -6 8
1262 421 2 -0.35 34.14574914861042 55.56621108259387 27.604528600570987 -6 -6 8
991 331 1 0.7 146.45483889005274 57.13145629475386 16.306755918287575 8 1 7
992 331 2 -0.35 147.0350608796506 58.13053292235275 16.20288900838474 8 1 7
731 244 2 -0.35 169.51258747263367 48.44617277800685 19.99021474592911 -2 3 0
730 244 1 0.7 168.90785177590277 49.33698220790819 19.558528173636923 -2 3 0
732 244 2 -0.35 168.3031160791719 50.22779163780954 19.126841601344733 -2 3 0
366 122 2 -0.35 30.49746367060207 68.82044866205868 24.341090816981648 4 4 1
761 254 2 -0.35 46.490909936783645 74.41742532417163 28.097996644800123 4 3 -3
760 254 1 0.7 45.54321967835626 73.80811807768687 27.821902723345435 4 3 -3
762 254 2 -0.35 44.595529419928866 73.19881083120211 27.54580880189075 4 3 -3
365 122 2 -0.35 32.23060875994428 70.2095887621341 23.671092397841427 4 4 1
364 122 1 0.7 31.364036215273178 69.51501871209639 24.006091607411538 4 4 1
450 150 2 -0.35 61.077090718828664 75.12849090998942 17.514574960980283 2 -2 1
448 150 1 0.7 61.24388406173565 75.39968905088168 18.63002623698415 2 -2 1
449 150 2 -0.35 61.410677404642634 75.67088719177393 19.745477512988018 2 -2 1
863 288 2 -0.35 79.89549421440942 67.9276282371611 25.083537569568424 -2 1 1
864 288 2 -0.35 78.2896235393583 68.67477806088525 23.58508953379047 -2 1 1
862 288 1 0.7 79.09255887688387 68.30120314902317 24.334313551679447 -2 1 1
135 45 2 -0.35 2.411504309034779 84.1542259969696 18.926934264969077 1 2 -2
133 45 1 0.7 3.467364577279999 84.63445899326115 18.938568834843412 1 2 -2
134 45 2 -0.35 4.523224845525219 85.11469198955271 18.950203404717747 1 2 -2
769 257 1 0.7 107.98060770632011 89.30735175003727 17.896883758770844 -1 3 1
770 257 2 -0.35 107.17296556669008 88.61092321918629 18.353284323747726 -1 3 1
771 257 2 -0.35 108.78824984595015 90.00378028088825 17.440483193793966 -1 3 1
426 142 2 -0.35 116.54445287223147 87.11120828442486 19.74868659389677 1 5 -8
424 142 1 0.7 116.6109259906323 86.31262097347947 20.58739967435123 1 5 -8
425 142 2 -0.35 116.6773991090331 85.51403366253406 21.426112754805683 1 5 -8
348 116 2 -0.35 113.52099099578325 94.74265059827866 15.299400500784676 -3 3 -4
1488 496 2 -0.35 119.94098648933317 90.5724107525221 19.190974597975792 -2 -3 2
1486 496 1 0.7 119.73215846827759 89.55321649958462 19.704037881013704 -2 -3 2
1487 496 2 -0.35 119.52333044722202 88.53402224664715 20.217101164051613 -2 -3 2
681 227 2 -0.35 20.418243821001916 95.8505248960332 20.013017425463204 0 -2 0
679 227 1 0.7 19.850094108334435 95.52044288337252 19.057061480393074 0 -2 0
680 227 2 -0.35 19.281944395666955 95.19036087071184 18.101105535322944 0 -2 0
621 207 2 -0.35 26.829314657690173 105.9282442364094 30.31011142266881 0 1 3
620 207 2 -0.35 26.062942983110332 106.11539214670145 28.12835751444004 0 1 3
619 207 1 0.7 26.44612882040025 106.02181819155543 29.219234468554426 0 1 3
249 83 2 -0.35 17.113743327499677 103.24097323509359 26.666689754982237 0 0 3
247 83 1 0.7 16.77380025588034 102.13914815156652 26.793260657512974 0 0 3
248 83 2 -0.35 16.433857184261 101.03732306803943 26.919831560043715 0 0 3
209 70 2 -0.35 18.16869737991933 106.5995919693857 29.60905425532888 2 -7 1
208 70 1 0.7 18.691102297625598 107.6351451845682 29.627016451211755 2 -7 1
210 70 2 -0.35 19.213507215331866 108.67069839975069 29.64497864709463 2 -7 1
1313 438 2 -0.35 57.101701371043376 99.39954789783899 30.414461649200938 -1 -2 6
1312 438 1 0.7 56.62114281238395 100.34255872503226 30.8892184832705 -1 -2 6
530 177 2 -0.35 82.95966817238683 93.77211412799781 21.174568631766213 3 -2 3
531 177 2 -0.35 84.3314371647679 94.33557686531128 19.390427500801692 3 -2 3
529 177 1 0.7 83.64555266857737 94.05384549665455 20.282498066283953 3 -2 3
347 116 2 -0.35 112.79451459101193 96.49260931915339 16.63815981767064 -3 3 -4
346 116 1 0.7 113.15775279339759 95.61762995871602 15.968780159227657 -3 3 -4
758 253 2 -0.35 6.994808499300025 124.04482656142004 15.633107990913972 3 -1 4
757 253 1 0.7 7.881683142496083 123.30378493773733 15.732660385277631 3 -1 4
759 253 2 -0.35 8.76855778569214 122.56274331405463 15.83221277964129 3 -1 4
92 31 2 -0.35 75.38387193792241 112.90353962037955 17.982882612443298 -2 2 2
93 31 2 -0.35 77.50703952433021 112.34407289969364 18.73225327404274 -2 2 2
91 31 1 0.7 76.4454557311263 112.62380626003659 18.35756794324302 -2 2 2
1143 381 2 -0.35 119.14092468052753 112.40252188924923 27.943191998431885 -1 -6 -4
1141 381 1 0.7 119.61685460197032 111.96943969906889 26.97803370756833 -1 -6 -4
1142 381 2 -0.35 120.0927845234131 111.53635750888854 26.012875416704773 -1 -6 -4
288 96 2 -0.35 140.28514876848797 111.66830906045892 23.22716736919646 6 -1 -7
286 96 1 0.7 140.9197146785561 110.86075210655066 22.68792913615625 6 -1 -7
287 96 2 -0.35 141.5542805886242 110.0531951526424 22.148690903116037 6 -1 -7
827 276 2 -0.35 13.572083126485497 140.78581856537164 22.057407340926343 -1 3 0
1187 396 2 -0.35 52.58792731460064 139.0960692809132 26.408236437264822 -3 3 -9
1186 396 1 0.7 52.85425566584879 139.21396045499387 25.285395896318303 -3 3 -9
1188 396 2 -0.35 53.12058401709693 139.33185162907452 24.162555355371783 -3 3 -9
1071 357 2 -0.35 89.58275543744556 139.09871720984412 19.281490742894455 6 -1 -5
1069 357 1 0.7 89.97257030297345 139.11669165649155 18.18909828142285 6 -1 -5
1070 357 2 -0.35 90.36238516850133 139.13466610313898 17.09670581995125 6 -1 -5
590 197 2 -0.35 135.74466036548407 140.71846164363356 15.807666438490532 -13 0 6
575 192 2 -0.35 131.22028844867927 127.87107973390988 22.43871013939117 -1 -1 0
576 192 2 -0.35 129.10935761711488 128.82136128509148 22.591471383918314 -1 -1 0
574 192 1 0.7 130.1648230328971 128.34622050950068 22.515090761654744 -1 -1 0
338 113 2 -0.35 161.21238589430436 128.07590474707996 27.087119361411858 -1 2 5
337 113 1 0.7 162.14470189970086 128.6255143663633 27.504631196541272 -1 2 5
339 113 2 -0.35 163.07701790509734 129.17512398564662 27.92214303167069 -1 2 5
50 17 2 -0.35 160.66777125092884 127.2375471195712 30.920348001994316 3 8 -3
49 17 1 0.7 159.54294055511758 127.3295131860677 31.18848630282621 3 8 -3
51 17 2 -0.35 158.4181098593063 127.42147925256421 31.456624603658103 3 8 -3
826 276 1 0.7 14.397995873544447 141.23595214369445 21.378549553232943 -1 3 0
828 276 2 -0.35 15.223908620603396 141.68608572201725 20.699691765539544 -1 3 0
520 174 1 0.7 4.304975102163145 145.1031242725222 24.712077109758187 4 -2 -3
522 174 2 -0.35 5.437976766603207 145.04186121136095 24.47092556878412 4 -2 -3
521 174 2 -0.35 3.1719734377230884 145.16438733368344 24.95322865073225 4 -2 -3
485 162 2 -0.35 77.98864581129746 156.25460601812804 19.82909700713585 -2 -2 1
887 296 2 -0.35 106.84529247751783 141.52751313712375 22.47249824030789 2 -2 5
886 296 1 0.7 106.38162998509667 142.1977168025138 23.29799453952403 2 -2 5
888 296 2 -0.35 105.9179674926755 142.86792046790387 24.12349083874017 2 -2 5
591 197 2 -0.35 136.16207945071577 141.26149205275408 18.0242582552328 -13 0 6
589 197 1 0.7 135.95336990809992 140.98997684819383 16.91596234686167 -13 0 6
586 196 1 0.7 21.567250072630653 162.65301095958782 29.00795151962403 -1 0 -3
588 196 2 -0.35 20.88915632663877 162.30589552988923 28.13313739644592 -1 0 -3
587 196 2 -0.35 22.24534381862254 163.0001263892864 29.88276564280214 -1 0 -3
1347 449 2 -0.35 42.18956006248237 158.02269303188538 18.6675728946804 1 -6 4
1346 449 2 -0.35 42.495844301409015 158.96509149943697 16.56984195546664 1 -6 4
1345 449 1 0.7 42.34270218194569 158.49389226566117 17.61870742507352 1 -6 4
1054 352 1 0.7 47.86718186822284 170.48516100301015 29.648939536704503 -2 -6 0
1056 352 2 -0.35 46.70880104437403 170.53768621335175 29.680482669365965 -2 -6 0
830 277 2 -0.35 73.46833929117147 167.87614530516882 25.63029492829799 -2 -1 1
829 277 1 0.7 73.57795517441592 167.1629104241613 26.538524173947653 -2 -1 1
831 277 2 -0.35 73.68757105766036 166.44967554315377 27.446753419597318 -2 -1 1
486 162 2 -0.35 79.43095512578958 157.86386141785832 18.985034865007336 -2 -2 1
484 162 1 0.7 78.70980046854352 157.05923371799318 19.407065936071593 -2 -2 1
39 13 2 -0.35 41.62609203134307 3.0501168389852515 33.66100216340283 -3 1 -4
37 13 1 0.7 42.69192487648659 3.274958386323569 34.0598086638565 -3 1 -4
38 13 2 -0.35 43.7577577216301 3.4997999336618864 34.458615164310174 -3 1 -4
1191 397 2 -0.35 52.086765857100424 1.0807238160757318 34.318301603100046 3 -4 -11
377 126 2 -0.35 105.7175744782504 11.603054174772186 39.92007930650839 -9 -1 3
376 126 1 0.7 106.19847514762662 12.468405135014255 39.31551147590371 -9 -1 3
378 126 2 -0.35 106.67937581700284 13.333756095256325 38.71094364529903 -9 -1 3
1049 350 2 -0.35 16.425458825471644 28.133022642285948 32.63804464337532 1 -2 -1
1048 350 1 0.7 15.755680680784662 27.460636464518995 33.30504844010122 1 -2 -1
1050 350 2 -0.35 15.085902536097683 26.788250286752042 33.97205223682712 1 -2 -1
819 273 2 -0.35 30.36691161171601 43.37856439205537 41.363746610516436 0 4 2
817 273 1 0.7 30.48641007239778 44.21726720201492 42.15614658178172 0 4 2
818 273 2 -0.35 30.605908533079553 45.055970011974466 42.948546553047 0 4 2
1253 418 2 -0.35 129.07595629912808 38.53515031649815 41.39162369007583 7 -3 0
1252 418 1 0.7 129.9221831069715 37.80455980490645 41.082208606314865 7 -3 0
1254 418 2 -0.35 130.76840991481487 37.07396929331474 40.772793522553904 7 -3 0
272 91 2 -0.35 145.69406576397077 42.57716232990368 43.97096235163036 -2 1 0
271 91 1 0.7 145.30990088994903 41.75301790846877 43.250682321235 -2 1 0
273 91 2 -0.35 144.9257360159273 40.92887348703387 42.53040229083963 -2 1 0
1197 399 2 -0.35 18.274776261939884 49.34945029306574 36.77032441171467 5 -2 12
1195 399 1 0.7 17.94044807529968 48.74693791157257 37.703492935491255 5 -2 12
1196 399 2 -0.35 17.606119888659478 48.1444255300794 38.63666145926784 5 -2 12
698 233 2 -0.35 63.42361391291506 48.97843781659278 46.24759701416872 -1 5 3
444 148 2 -0.35 67.40454131375112 55.4546644501522 38.49551951362349 3 -4 4
443 148 2 -0.35 67.85351810175554 53.185772494534184 38.31400054062172 3 -4 4
442 148 1 0.7 67.62902970775333 54.32021847234319 38.404760027122606 3 -4 4
306 102 2 -0.35 76.83204883737223 58.44203896220233 37.25978082435736 7 2 1
305 102 2 -0.35 74.69446396286132 57.847623541154064 36.58169439072183 7 2 1
304 102 1 0.7 75.76325640011677 58.1448312516782 36.92073760753959 7 2 1
1256 419 2 -0.35 81.92590474640379 58.25676824296558 42.009346260722225 2 -4 2
1255 419 1 0.7 81.03282570980747 57.986697719023105 41.32009177470806 2 -4 2
1257 419 2 -0.35 80.13974667321114 57.71662719508063 40.6308372886939 2 -4 2
600 200 2 -0.35 108.97339875347198 60.090566855405775 32.39619872735335 1 10 -3
598 200 1 0.7 109.93312949861763 60.649119878717336 32.06073573838146 1 10 -3
599 200 2 -0.35 110.89286024376328 61.2076729020289 31.725272749409566 1 10 -3
1002 334 2 -0.35 46.28413165589056 63.965685565583726 42.01384444134841 3 -2 2
1001 334 2 -0.35 48.39394737305535 63.098626064441895 42.437265580499606 3 -2 2
1000 334 1 0.7 47.33903951447295 63.532155815012814 42.22555501092401 3 -2 2
1059 353 2 -0.35 48.3000309936143 74.80238826847624 46.239098967005766 2 8 -7
837 279 2 -0.35 6.842048255074266 84.33691635963979 38.107076676388964 -1 1 1
835 279 1 0.7 5.973218345046603 84.41667280505224 38.8715199357975 -1 1 1
836 279 2 -0.35 5.1043884350189455 84.49642925046471 39.63596319520603 -1 1 1
141 47 2 -0.35 43.66868374425054 80.93913455473046 37.1804311570013 -3 0 4
139 47 1 0.7 44.80399788499867 80.76398807130055 37.34163137772022 -3 0 4
140 47 2 -0.35 45.93931202574681 80.58884158787063 37.50283159843914 -3 0 4
1491 497 2 -0.35 56.76921622939897 89.31805152046444 35.4015772474733 -4 -3 0
1489 497 1 0.7 57.600615869663805 90.00281472095965 35.832244169136814 -4 -3 0
1490 497 2 -0.35 58.43201550992864 90.68757792145486 36.26291109080033 -4 -3 0
176 59 2 -0.35 78.31409008203092 86.668216477501 38.05046280954296 2 2 -3
175 59 1 0.7 79.21007843848287 86.50544403923323 38.76900995374721 2 2 -3
177 59 2 -0.35 80.10606679493482 86.34267160096543 39.48755709795146 2 2 -3
470 157 2 -0.35 107.25607073714933 81.39043047668439 42.60708320369746 3 -5 -7
469 157 1 0.7 107.93286753867592 80.92802401950816 41.78627484737749 3 -5 -7
471 157 2 -0.35 108.60966434020251 80.46561756233193 40.965466491057526 3 -5 -7
315 105 2 -0.35 106.11063977255213 94.25875700666981 42.676028616011294 -1 1 -3
1222 408 1 0.7 117.55797099427181 83.6640845447897 37.53822528407176 0 -1 1
1224 408 2 -0.35 118.34601390197649 84.12122946178714 38.256283011890474 0 -1 1
1223 408 2 -0.35 116.76992808656715 83.20693962779227 36.82016755625305 0 -1 1
155 52 2 -0.35 21.304096076319304 94.6005809739121 38.93623193317545 1 -6 -3
156 52 2 -0.35 20.94223286940967 96.84367748143406 38.46721905762688 1 -6 -3
154 52 1 0.7 21.123164472864488 95.72212922767308 38.70172549540116 1 -6 -3
1314 438 2 -0.35 56.14058425372452 101.28556955222552 31.36397531734006 -1 -2 6
313 105 1 0.7 106.29175717227668 95.18763154929894 42.00521674106228 -1 1 -3
314 105 2 -0.35 106.47287457200122 96.11650609192806 41.33440486611325 -1 1 -3
572 191 2 -0.35 133.0365615561617 96.70720093129736 42.0598560970605 0 -5 -3
571 191 1 0.7 133.00227875588882 95.93081589872388 41.19866449770377 0 -5 -3
573 191 2 -0.35 132.96799595561595 95.15443086615039 40.33747289834703 0 -5 -3
1182 394 2 -0.35 3.629362872175476 116.61413367605918 44.37124232891965 10 3 5
1180 394 1 0.7 4.331375271493235 115.81531475396086 44.83456394605087 10 3 5
1181 394 2 -0.35 5.0333876708109955 115.01649583186253 45.2978855631821 10 3 5
438 146 2 -0.35 26.161552679601783 117.53953239798196 36.425161599211556 -5 -1 1
436 146 1 0.7 25.91372492302562 117.80813891737806 37.52608482124254 -5 -1 1
437 146 2 -0.35 25.665897166449454 118.07674543677416 38.62700804327352 -5 -1 1
290 97 2 -0.35 60.48373655229454 113.78177684209999 39.8617624815531 -1 3 4
291 97 2 -0.35 58.650987521093334 113.770370829228 38.43933466563547 -1 3 4
289 97 1 0.7 59.567362036693936 113.776073835664 39.150548573594286 -1 3 4
375 125 2 -0.35 77.86729743586345 118.72979570218504 43.99681009324688 -1 4 -18
373 125 1 0.7 77.76634986940093 119.628044225802 44.72383084855126 -1 4 -18
990 330 2 -0.35 93.41023455620943 112.11136088370105 31.68298868510004 -1 -1 -3
374 125 2 -0.35 77.66540230293839 120.52629274941894 45.450851603855625 -1 4 -18
988 330 1 0.7 93.16260103020724 111.05810303754393 32.10122969971509 -1 -1 -3
989 330 2 -0.35 92.91496750420507 110.00484519138682 32.51947071433014 -1 -1 -3
1475 492 2 -0.35 91.91014666312313 110.60863023464475 38.38593732248333 -1 1 -3
1474 492 1 0.7 92.848585930332 111.11360653107205 38.8441192533871 -1 1 -3
1476 492 2 -0.35 93.7870251975409 111.61858282749937 39.30230118429086 -1 1 -3
410 137 2 -0.35 141.4476860784485 123.41656590733474 34.760882926345104 -5 0 6
409 137 1 0.7 140.4711186114498 123.97682998426045 34.481562059766645 -5 0 6
411 137 2 -0.35 139.49455114445112 124.53709406118615 34.202241193188186 -5 0 6
551 184 2 -0.35 69.90387748558489 132.93514786052845 37.74743662087309 2 -5 2
550 184 1 0.7 69.10160044506449 132.37642932738305 37.12310886162041 2 -5 2
552 184 2 -0.35 68.29932340454408 131.81771079423763 36.49878110236773 2 -5 2
1385 462 2 -0.35 109.06562672711446 133.47457757646123 47.76167266174625 1 2 3
1386 462 2 -0.35 106.85356259949135 133.7020517635869 47.10028942225231 1 2 3
1384 462 1 0.7 107.95959466330291 133.58831467002406 47.43098104199928 1 2 3
114 38 2 -0.35 49.17588708074394 146.17849724025615 42.24601128194534 0 5 3
113 38 2 -0.35 51.36375112972474 146.45161804640344 41.524169243528156 0 5 3
112 38 1 0.7 50.26981910523434 146.3150576433298 41.88509026273675 0 5 3
613 205 1 0.7 67.27256267866669 144.866377506798 46.212829264524885 -1 -1 -1
615 205 2 -0.35 66.65558883880625 145.6437562575818 46.81335033722556 -1 -1 -1
614 205 2 -0.35 67.88953651852714 144.08899875601418 45.612308191824205 -1 -1 -1
663 221 2 -0.35 86.16282042151246 143.58354222199816 40.30846676833819 -3 -3 1
661 221 1 0.7 85.98353164492727 144.1947904130152 39.3390178611918 -3 -3 1
662 221 2 -0.35 85.80424286834206 144.8060386040322 38.36956895404541 -3 -3 1
368 123 2 -0.35 97.43433209476234 143.60166982291648 42.1707258474402 7 7 9
367 123 1 0.7 97.89354869832594 144.42048832700868 42.85208945695298 7 7 9
369 123 2 -0.35 98.35276530188955 145.23930683110092 43.53345306646577 7 7 9
1190 397 2 -0.35 52.39870200433108 169.7843434615902 34.209982133086875 3 -5 -11
1189 397 1 0.7 52.24273393071575 170.93253363883298 34.26414186809346 3 -5 -11
479 160 2 -0.35 86.97347331524394 162.6182063880563 45.543174573032836 1 -1 5
478 160 1 0.7 88.09468927744389 162.40282101392606 45.748318197643556 1 -1 5
480 160 2 -0.35 89.21590523964385 162.1874356397958 45.953461822254276 1 -1 5
285 95 2 -0.35 97.16950106776856 158.03603254621697 45.18339090801769 -5 1 0
283 95 1 0.7 97.4074084023448 158.75079105744507 44.30127959373709 -5 1 0
284 95 2 -0.35 97.64531573692105 159.46554956867317 43.4191682794565 -5 1 0
738 246 2 -0.35 116.78335212678782 163.98623875331123 46.02165785398599 4 5 5