LAMMPS (29 Aug 2024 - Update 1)
  using 1 OpenMP thread(s) per MPI task
package gpu 1 gpuID 0
# GCMC for CO2 molecular fluid, rigid/small/nvt dynamics
# Rigid CO2 TraPPE model
# [Potoff and J.I. Siepmann, Vapor-liquid equilibria of
# mixtures containing alkanes, carbon dioxide and
# nitrogen AIChE J., 47,1676-1682 (2001)].

# global model settings

units           real
atom_style      full
boundary        p p p
pair_style      lj/cut/coul/long  12
pair_modify     mix arithmetic shift yes
kspace_style    pppm 1.0e-4
bond_style      harmonic
angle_style     harmonic
neigh_modify    one 4000

# box, start molecules on simple cubic lattice
region          mbox block 0 ${lbox} 0 ${lbox} 0 ${lbox} units box
region          mbox block 0 171 0 ${lbox} 0 ${lbox} units box
region          mbox block 0 171 0 171 0 ${lbox} units box
region          mbox block 0 171 0 171 0 171 units box
create_box      2 mbox                                       bond/types 1                                angle/types 1                               extra/bond/per/atom 2                       extra/angle/per/atom 1                      extra/special/per/atom 2
Created orthogonal box = (0 0 0) to (171 171 171)
  1 by 1 by 1 MPI processor grid
molecule        co2mol ../CO2.txt
Read molecule template co2mol:
# CO2 molecule file. TraPPE model.
  1 molecules
  0 fragments
  3 atoms with max type 2
  2 bonds with max type 1
  1 angles with max type 1
  0 dihedrals with max type 0
  0 impropers with max type 0
create_atoms   	0 random ${nmols} 34578 mbox mol co2mol 464563 overlap 1.2
create_atoms   	0 random 500 34578 mbox mol co2mol 464563 overlap 1.2
Created 1500 atoms
  using lattice units in orthogonal box = (0 0 0) to (171 171 171)
  create_atoms CPU = 0.007 seconds

# rigid CO2 TraPPE model

pair_coeff      1   1  0.053649   2.800
pair_coeff      2   2  0.156973   3.050
bond_coeff      1       0       1.16
angle_coeff     1       0       180

# masses

mass 1 12.0107
mass 2 15.9994

write_data init_conf.data  pair ij
System init for write_data ...
PPPM initialization ...
  using 12-bit tables for long-range coulomb (src/kspace.cpp:342)
  G vector (1/distance) = 0.15557183
  grid = 32 32 32
  stencil order = 5
  estimated absolute RMS force accuracy = 0.035261612
  estimated relative force accuracy = 0.0001061893
  using double precision FFTW3
  3d grid and FFT values/proc = 50653 32768
Generated 1 of 1 mixed pair_coeff terms from arithmetic mixing rule

# MD settings

group           co2 type 1 2
1500 atoms in group co2
velocity       	all create 300 54654
timestep        0.25

# rigid constraints with thermostat
fix             myrigidnvt co2 rigid/nvt molecule temp 300 300 $(100*dt)
fix             myrigidnvt co2 rigid/nvt molecule temp 300 300 25
  500 rigid bodies with 1500 atoms

thermo 1000
thermo_style custom step temp density press ke pe etotal


variable    mvol equal vol
variable    mden equal density
variable	mtmp equal temp
variable    mpre equal press

fix mydat all ave/time 1 4000 4000 v_mtmp v_mden v_mpre file statistics.dat ## every 1ps

run 4000000 ## 1ns

CITE-CITE-CITE-CITE-CITE-CITE-CITE-CITE-CITE-CITE-CITE-CITE-CITE

Your simulation uses code contributions which should be cited:

- GPU package (short-range, long-range and three-body potentials): doi:10.1016/j.cpc.2010.12.021, doi:10.1016/j.cpc.2011.10.012, doi:10.1016/j.cpc.2013.08.002, doi:10.1016/j.commatsci.2014.10.068, doi:10.1016/j.cpc.2016.10.020, doi:10.3233/APC200086

@Article{Brown11,
 author = {W. M. Brown and P. Wang and S. J. Plimpton and A. N. Tharrington},
 title = {Implementing Molecular Dynamics on Hybrid High Performance Computers---Short Range Forces},
 journal = {Comput.\ Phys.\ Commun.},
 year =    2011,
 volume =  182,
 pages =   {898--911},
 doi =     {10.1016/j.cpc.2010.12.021}
}

@Article{Brown12,
 author = {W. M. Brown and A. Kohlmeyer and S. J. Plimpton and A. N. Tharrington},
 title = {Implementing Molecular Dynamics on Hybrid High Performance Computers - Particle-Particle Particle-Mesh},
 journal = {Comput.\ Phys.\ Commun.},
 year =    2012,
 volume =  183,
 doi =     {10.1016/j.cpc.2011.10.012},
 pages =   {449--459}
}

@Article{Brown13,
 author = {W. M. Brown and Y. Masako},
 title = {Implementing Molecular Dynamics on Hybrid High Performance Computers---Three-Body Potentials},
 journal = {Comput.\ Phys.\ Commun.},
 year =    2013,
 volume =  184,
 pages =   {2785--2793},
 doi =     {10.1016/j.cpc.2013.08.002},
}

@Article{Trung15,
 author = {T. D. Nguyen and S. J. Plimpton},
 title = {Accelerating Dissipative Particle Dynamics Simulations for Soft Matter Systems},
 journal = {Comput.\ Mater.\ Sci.},
 year =    2015,
 doi =     {10.1016/j.commatsci.2014.10.068},
 volume =  100,
 pages =   {173--180}
}

@Article{Trung17,
 author = {T. D. Nguyen},
 title = {{GPU}-Accelerated {T}ersoff Potentials for Massively Parallel
    Molecular Dynamics Simulations},
 journal = {Comput.\ Phys.\ Commun.},
 year =    2017,
 doi =     {10.1016/j.cpc.2016.10.020},
 volume =  212,
 pages =   {113--122}
}

@inproceedings{Nikolskiy19,
 author = {V. Nikolskiy and V. Stegailov},
 title = {{GPU} Acceleration of Four-Site Water Models in {LAMMPS}},
 booktitle = {Proceedings of the International Conference on Parallel
    Computing (ParCo 2019), Prague, Czech Republic},
 doi =     {10.3233/APC200086},
 year =    2019
}

CITE-CITE-CITE-CITE-CITE-CITE-CITE-CITE-CITE-CITE-CITE-CITE-CITE

PPPM initialization ...
  using 12-bit tables for long-range coulomb (src/kspace.cpp:342)
  G vector (1/distance) = 0.15557183
  grid = 32 32 32
  stencil order = 5
  estimated absolute RMS force accuracy = 0.035261612
  estimated relative force accuracy = 0.0001061893
  using double precision FFTW3
  3d grid and FFT values/proc = 50653 32768
Generated 1 of 1 mixed pair_coeff terms from arithmetic mixing rule
Per MPI rank memory allocation (min/avg/max) = 12.15 | 12.15 | 12.15 Mbytes
   Step          Temp         Density         Press          KinEng         PotEng         TotEng    
         0   307.69091      0.0073076404   53.173145      763.38962      12600.904      13364.294    
      1000   326.51047      0.0073076404   8.3942942      810.08148     -9.1578489      800.92363    
      2000   305.10789      0.0073076404   3.7493475      756.98108     -12.246839      744.73424    
      3000   294.90341      0.0073076404   3.8226539      731.6635      -13.385633      718.27786    
      4000   299.23839      0.0073076404   3.8043695      742.4187      -15.167946      727.25075    
      5000   299.6993       0.0073076404   3.7691703      743.56223     -18.495891      725.06634    
      6000   302.37993      0.0073076404   3.7955795      750.21294     -19.471425      730.74151    
      7000   300.41754      0.0073076404   3.9063635      745.34421     -21.271449      724.07276    
      8000   298.36721      0.0073076404   3.8769454      740.25728     -25.364529      714.89275    
      9000   302.67668      0.0073076404   4.4125042      750.9492      -23.909414      727.03978    
     10000   308.97591      0.0073076404   4.3958422      766.57775     -30.379671      736.19808    
     11000   291.52756      0.0073076404   3.9584962      723.2879      -30.032612      693.25529    
     12000   287.89868      0.0073076404   3.56024        714.28457     -28.707072      685.5775     
     13000   300.91393      0.0073076404   5.9054658      746.57576     -26.463626      720.11213    
     14000   311.32513      0.0073076404   4.3003423      772.40623     -27.561345      744.84488    
     15000   286.48694      0.0073076404   0.95419783     710.78199     -27.214368      683.56763    
     16000   295.38938      0.0073076404   6.9023344      732.86919     -26.529793      706.3394     
     17000   305.00206      0.0073076404   3.2019302      756.71853     -30.323934      726.39459    
     18000   298.44103      0.0073076404   4.8439483      740.44042     -33.462746      706.97767    
     19000   293.75985      0.0073076404   2.5362249      728.82629     -34.402351      694.42394    
     20000   301.10267      0.0073076404   4.0579479      747.04402     -32.894584      714.14943    
     21000   296.58792      0.0073076404   3.3006851      735.84281     -36.237151      699.60565    
     22000   295.76709      0.0073076404   2.7924694      733.80631     -37.329504      696.47681    
     23000   294.65797      0.0073076404   4.8409635      731.05455     -34.90932       696.14523    
     24000   301.29513      0.0073076404   6.0034727      747.52153     -29.489018      718.03251    
     25000   305.66901      0.0073076404   3.8187855      758.37325     -39.076296      719.29695    
     26000   297.42992      0.0073076404   15.775499      737.93183     -37.722283      700.20955    
     27000   291.72935      0.0073076404   0.77772        723.78857     -40.522402      683.26617    
     28000   324.27109      0.0073076404   5.1425569      804.52551     -43.733533      760.79197    
     29000   291.58279      0.0073076404   6.5940878      723.42495     -46.898488      676.52646    
     30000   284.97851      0.0073076404   5.7586401      707.03954     -44.802489      662.23705    
     31000   313.08871      0.0073076404   3.1328835      776.78172     -42.957699      733.82402    
     32000   312.74121      0.0073076404   3.5938898      775.91956     -47.973691      727.94587    
     33000   305.95622      0.0073076404   3.65211        759.0858      -47.279182      711.80662    
     34000   297.85591      0.0073076404   2.4405497      738.98873     -48.856533      690.1322     
     35000   308.60908      0.0073076404   5.9001949      765.66763     -51.326165      714.34146    
     36000   311.26111      0.0073076404   3.3818325      772.24739     -52.734555      719.51283    
     37000   302.59168      0.0073076404   2.0343895      750.7383      -52.549417      698.18888    
     38000   283.69587      0.0073076404   7.3256551      703.85727     -53.94548       649.91179    
     39000   294.34022      0.0073076404   5.2467284      730.26619     -54.215921      676.05027    
     40000   317.80796      0.0073076404   3.3050447      788.4903      -57.196276      731.29403    
     41000   295.14444      0.0073076404   2.5231233      732.2615      -56.969629      675.29187    
     42000   308.3912       0.0073076404   1.2640989      765.12707     -57.003982      708.12309    
     43000   289.84846      0.0073076404   0.45147434     719.12201     -60.75756       658.36445    
     44000   284.29046      0.0073076404   5.6978966      705.33248     -53.998532      651.33395    
     45000   320.62199      0.0073076404   3.5073716      795.47199     -52.852809      742.61918    
     46000   297.62719      0.0073076404   4.9935751      738.42126     -57.353383      681.06788    
     47000   292.22944      0.0073076404   5.0049792      725.0293      -54.427573      670.60173    
     48000   308.46042      0.0073076404   2.9780907      765.29881     -60.179959      705.11885    
     49000   312.90975      0.0073076404   1.1370725      776.33773     -58.980979      717.35675    
     50000   296.33983      0.0073076404   5.4978437      735.22728     -57.960757      677.26652    
     51000   295.83948      0.0073076404  -1.8242507      733.98589     -57.424544      676.56135    
     52000   310.51625      0.0073076404   3.3118376      770.39937     -58.949591      711.44978    
     53000   309.80075      0.0073076404   11.592574      768.62419     -56.199939      712.42425    
     54000   284.25271      0.0073076404   4.2179799      705.2388      -61.696158      643.54265    
     55000   301.07317      0.0073076404   3.4773432      746.97084     -68.902577      678.06826    
     56000   308.76424      0.0073076404   4.2517557      766.0526      -64.473275      701.57932    
     57000   295.4785       0.0073076404   3.6597306      733.09031     -70.009184      663.08113    
     58000   290.8294       0.0073076404   2.8217478      721.55576     -72.791111      648.76465    
     59000   302.20253      0.0073076404   7.3366971      749.7728      -71.289547      678.48325    
     60000   297.17664      0.0073076404   4.8429688      737.30343     -72.887998      664.41543    
     61000   303.43066      0.0073076404   2.6549755      752.81983     -71.448673      681.37115    
     62000   296.33805      0.0073076404   2.4401238      735.22288     -75.619713      659.60317    
     63000   292.13368      0.0073076404   5.6139973      724.79171     -75.949887      648.84183    
     64000   303.35477      0.0073076404   8.8723371      752.63155     -72.576355      680.0552     
     65000   294.80473      0.0073076404   5.1168784      731.41867     -77.629655      653.78901    
     66000   293.80518      0.0073076404   2.706108       728.93875     -75.381341      653.55741    
     67000   323.06564      0.0073076404   3.7081548      801.53477     -77.3056        724.22917    
     68000   300.502        0.0073076404   3.589969       745.55374     -75.195033      670.35871    
     69000   306.02211      0.0073076404   3.4253447      759.24929     -77.609954      681.63934    
     70000   302.57578      0.0073076404   3.7037578      750.69884     -79.573965      671.12487    
     71000   286.52313      0.0073076404   0.22998225     710.8718      -84.206901      626.66489    
     72000   304.61126      0.0073076404   2.8448371      755.74893     -81.196387      674.55254    
     73000   307.95859      0.0073076404   7.0163241      764.05374     -78.395653      685.65809    
     74000   293.57305      0.0073076404   3.1010481      728.36282     -79.887046      648.47578    
     75000   308.12521      0.0073076404   4.8150765      764.46713     -77.487451      686.97968    
     76000   304.13843      0.0073076404   4.0421058      754.57584     -81.52749       673.04835    
     77000   300.25325      0.0073076404   3.6976257      744.93659     -84.033197      660.90339    
     78000   306.93576      0.0073076404   3.8343245      761.51608     -86.955767      674.56031    
     79000   288.1536       0.0073076404   2.3673562      714.91702     -85.707809      629.20921    
     80000   306.74204      0.0073076404   3.3153323      761.03546     -85.335108      675.70035    
     81000   303.57212      0.0073076404   4.0430181      753.1708      -80.884335      672.28646    
     82000   282.93814      0.0073076404   3.2437043      701.97733     -86.196408      615.78092    
     83000   303.71609      0.0073076404   3.331585       753.528       -87.288539      666.23946    
     84000   300.09076      0.0073076404   3.7351854      744.53344     -81.729809      662.80363    
     85000   298.08482      0.0073076404   3.7292916      739.55665     -83.879595      655.67706    
     86000   305.20052      0.0073076404   3.1268279      757.2109      -86.572054      670.63884    
     87000   281.29396      0.0073076404   2.6639422      697.89806     -88.398595      609.49946    
     88000   294.54168      0.0073076404   11.688658      730.76603     -87.227833      643.5382     
     89000   306.26272      0.0073076404   3.3987366      759.84626     -84.989936      674.85632    
     90000   310.03079      0.0073076404   6.1651749      769.19494     -88.013258      681.18168    
     91000   293.68684      0.0073076404   3.6269924      728.64514     -93.813953      634.83118    
     92000   285.05617      0.0073076404   1.3597472      707.23222     -90.959566      616.27265    
     93000   303.99379      0.0073076404   2.0551155      754.21697     -89.748613      664.46836    
     94000   308.72934      0.0073076404   12.411033      765.96601     -84.452789      681.51323    
     95000   305.98991      0.0073076404   6.2533616      759.16939     -80.140592      679.0288     
     96000   290.76797      0.0073076404   2.1728193      721.40335     -88.075314      633.32804    
     97000   302.11167      0.0073076404   2.0313471      749.54738     -88.22362       661.32376    
     98000   298.43921      0.0073076404   8.4647703      740.4359      -90.815074      649.62083    
     99000   295.76573      0.0073076404   3.8192773      733.80292     -89.923328      643.8796     
    100000   303.44869      0.0073076404   3.2920721      752.86457     -89.534478      663.33009    
    101000   301.17331      0.0073076404   5.6095091      747.21928     -90.302711      656.91657    
    102000   291.48922      0.0073076404   5.7777634      723.1928      -94.007207      629.18559    
    103000   289.78295      0.0073076404  -0.83600649     718.95949     -87.231895      631.72759    
    104000   310.54671      0.0073076404   3.5502513      770.47495     -89.153075      681.32188    
    105000   299.99483      0.0073076404   6.8993714      744.29543     -90.448813      653.84662    
    106000   294.67232      0.0073076404   8.7075002      731.09014     -87.60099       643.48915    
    107000   292.3718       0.0073076404   1.5198827      725.3825      -85.262755      640.11974    
    108000   308.24691      0.0073076404  -7.3077295      764.76907     -89.126781      675.64229    
    109000   312.77231      0.0073076404   1.8400855      775.99672     -86.392427      689.6043     
    110000   296.71486      0.0073076404   8.9530977      736.15775     -84.668811      651.48894    
    111000   291.90096      0.0073076404   2.6005162      724.21432     -87.54227       636.67205    
    112000   308.46508      0.0073076404  -3.4034557      765.31036     -90.78906       674.5213     
    113000   291.22944      0.0073076404   5.8914819      722.54827     -84.181001      638.36727    
    114000   300.65641      0.0073076404   7.1242114      745.93684     -89.185951      656.75089    
    115000   295.44722      0.0073076404   4.0235872      733.0127      -93.497511      639.51519    
    116000   298.36065      0.0073076404   3.4929487      740.241       -86.683701      653.5573     
    117000   292.77453      0.0073076404   4.7530712      726.38167     -90.78452       635.59715    
    118000   317.17115      0.0073076404   4.2264208      786.91037     -87.675598      699.23477    
    119000   297.71926      0.0073076404   5.3861774      738.6497      -91.01109       647.63861    
    120000   286.68968      0.0073076404   2.9196819      711.285       -91.963861      619.32114    
    121000   300.48824      0.0073076404   2.1571065      745.51961     -90.279031      655.24058    
    122000   317.75162      0.0073076404   4.8058358      788.35053     -91.459716      696.89081    
    123000   295.42883      0.0073076404   3.4260659      732.96707     -89.67234       643.29473    
    124000   292.23111      0.0073076404   4.2274611      725.03343     -86.543182      638.49025    
    125000   305.31937      0.0073076404   3.1577497      757.50576     -88.712608      668.79315    
    126000   317.40032      0.0073076404   2.4091365      787.47893     -88.379463      699.09947    
    127000   288.03805      0.0073076404   3.6772726      714.63034     -89.538349      625.09199    
    128000   306.88103      0.0073076404   4.2003755      761.3803      -93.973273      667.40703    
    129000   301.86035      0.0073076404   3.601773       748.92386     -93.441015      655.48284    
    130000   290.25845      0.0073076404   2.5607076      720.1392      -100.35214      619.78706    
    131000   303.09698      0.0073076404   4.1212285      751.99197     -91.94864       660.04333    
    132000   308.40701      0.0073076404   3.5663278      765.16628     -95.245375      669.92091    
    133000   278.42117      0.0073076404   4.1004921      690.7706      -93.366079      597.40452    
    134000   288.34665      0.0073076404   3.8261937      715.39599     -98.017432      617.37856    
    135000   306.53446      0.0073076404   5.1817091      760.52045     -96.673986      663.84647    
    136000   302.37623      0.0073076404   2.4142093      750.20377     -97.082722      653.12105    
    137000   294.08341      0.0073076404   1.1383523      729.62905     -94.237922      635.39113    
    138000   299.58874      0.0073076404   5.2919458      743.28793     -91.830421      651.45751    
    139000   302.44534      0.0073076404   8.2022558      750.37522     -95.595429      654.77979    
    140000   304.59019      0.0073076404   3.8045976      755.69666     -97.304308      658.39235    
    141000   303.80471      0.0073076404   3.0333569      753.74785     -97.911634      655.83622    
    142000   303.44069      0.0073076404   3.0512698      752.84472     -96.620614      656.2241     
    143000   293.84424      0.0073076404   1.9449201      729.03566     -92.694089      636.34157    
    144000   297.59304      0.0073076404   5.6349227      738.33652     -89.163376      649.17315    
    145000   296.05275      0.0073076404  -0.73340961     734.51504     -93.500033      641.01501    
    146000   304.54742      0.0073076404   8.0112679      755.59053     -94.157713      661.43282    
    147000   295.53661      0.0073076404   2.9549858      733.23447     -93.589456      639.64501    
    148000   309.86281      0.0073076404   1.2346745      768.77818     -94.765165      674.01301    
    149000   306.28816      0.0073076404   4.8888445      759.90937     -89.411288      670.49809    
    150000   297.45878      0.0073076404   10.40425       738.00344     -94.108652      643.89478    
    151000   292.89337      0.0073076404   2.8057694      726.67652     -96.201677      630.47485    
    152000   299.57356      0.0073076404   3.0857004      743.25025     -94.104839      649.14541    
    153000   309.61995      0.0073076404   5.54871        768.17564     -91.553224      676.62242    
    154000   301.27018      0.0073076404   3.9073233      747.45962     -92.604243      654.85538    
    155000   285.043        0.0073076404   6.0185927      707.19954     -99.306386      607.89315    
    156000   299.97987      0.0073076404   3.2690525      744.25832     -94.765241      649.49308    
    157000   302.41525      0.0073076404   3.9209177      750.30057     -96.1428        654.15777    
    158000   294.17059      0.0073076404   4.1913372      729.84533     -106.39213      623.45321    
    159000   300.29674      0.0073076404   2.544193       745.04448     -98.303012      646.74147    
    160000   297.9963       0.0073076404   3.0672085      739.33704     -99.410754      639.92629    
    161000   303.1591       0.0073076404   4.9600717      752.14608     -100.902        651.24408    
    162000   300.7422       0.0073076404   3.9482216      746.14968     -99.604037      646.54565    
    163000   302.70949      0.0073076404   2.9164703      751.03059     -96.711583      654.31901    
    164000   296.04184      0.0073076404   3.392695       734.48796     -93.989066      640.4989     
    165000   292.54661      0.0073076404   4.0627973      725.81621     -96.253282      629.56293    
    166000   300.47292      0.0073076404   6.1261318      745.48159     -98.324628      647.15696    
    167000   314.78932      0.0073076404   2.9725401      781.00099     -96.469193      684.5318     
    168000   301.07875      0.0073076404   0.61277506     746.98468     -99.66159       647.32309    
    169000   294.43001      0.0073076404   7.8678397      730.48898     -94.262096      636.22688    
    170000   296.30095      0.0073076404   6.5725613      735.13082     -98.329322      636.8015     
    171000   311.38098      0.0073076404  -2.7564155      772.54481     -95.95038       676.59443    
    172000   291.96503      0.0073076404   6.4697373      724.37329     -94.309631      630.06366    
    173000   290.64708      0.0073076404   6.2392032      721.1034      -92.820401      628.283      
    174000   299.11072      0.0073076404   3.2132916      742.10195     -96.75287       645.34908    
    175000   292.22981      0.0073076404   1.258443       725.0302      -91.808794      633.22141    
    176000   298.71878      0.0073076404   5.1911161      741.12952     -90.006867      651.12265    
    177000   306.35993      0.0073076404   5.2995958      760.08743     -93.208631      666.8788     
    178000   300.05114      0.0073076404   3.3179434      744.43515     -91.883991      652.55116    
    179000   301.19686      0.0073076404   3.8201721      747.27771     -94.045589      653.23212    
    180000   306.34572      0.0073076404   3.6179598      760.05217     -90.684755      669.36742    
    181000   304.26086      0.0073076404   3.6910623      754.87958     -90.291286      664.58829    
    182000   292.48341      0.0073076404   4.1536738      725.65939     -95.462989      630.19641    
    183000   284.56179      0.0073076404   3.3944748      706.00564     -98.626389      607.37925    
    184000   301.40331      0.0073076404   2.6467989      747.78993     -101.05839      646.73154    
    185000   298.20644      0.0073076404   4.6089056      739.8584      -101.35225      638.50615    
    186000   299.8797       0.0073076404   4.4473699      744.00981     -99.881309      644.1285     
    187000   295.43134      0.0073076404   1.5445335      732.97329     -102.15643      630.81686    
    188000   299.55734      0.0073076404   5.1092492      743.21002     -99.347931      643.86209    
    189000   309.60856      0.0073076404   4.0896132      768.14737     -96.750008      671.39736    
    190000   294.24157      0.0073076404   3.1074844      730.02145     -96.314198      633.70725    
    191000   303.55194      0.0073076404   5.2717746      753.12072     -98.193212      654.92751    
    192000   309.73294      0.0073076404   2.326096       768.45596     -100.53465      667.92131    
    193000   308.56077      0.0073076404   4.5429003      765.54777     -99.666421      665.88135    
    194000   301.10788      0.0073076404   8.6640739      747.05695     -100.84367      646.21328    
    195000   290.75416      0.0073076404   5.5316385      721.36908     -96.835555      624.53352    
    196000   310.70754      0.0073076404   5.0355562      770.87396     -91.326945      679.54702    
    197000   308.49817      0.0073076404   3.7231775      765.39247     -97.97146       667.42101    
    198000   289.53232      0.0073076404   1.6335371      718.33767     -99.79434       618.54333    
    199000   300.29239      0.0073076404   3.4467363      745.0337      -96.869299      648.16441    
    200000   315.46819      0.0073076404   3.2437253      782.68528     -94.180051      688.50523    
    201000   298.55136      0.0073076404   3.7898016      740.71415     -92.278347      648.43581    
    202000   300.13968      0.0073076404   4.0653264      744.65483     -96.856277      647.79855    
    203000   291.03478      0.0073076404   3.6303262      722.06531     -90.337872      631.72744    
    204000   285.03175      0.0073076404   3.386989       707.17162     -92.348562      614.82306    
    205000   300.73623      0.0073076404   2.3670612      746.13489     -94.964707      651.17018    
    206000   313.04965      0.0073076404   4.9920297      776.68482     -95.59691       681.08791    
    207000   283.43027      0.0073076404   2.2880788      703.19831     -89.585448      613.61286    
    208000   294.70803      0.0073076404  -0.80581519     731.17876     -91.620728      639.55803    
    209000   305.35466      0.0073076404   7.9335744      757.59333     -88.557122      669.03621    
    210000   291.62761      0.0073076404   9.9330564      723.53613     -92.719452      630.81668    
    211000   292.12873      0.0073076404   3.9192683      724.77944     -94.424971      630.35447    
    212000   297.63684      0.0073076404  -2.5789973      738.44521     -91.859679      646.58553    
    213000   307.01795      0.0073076404   4.2976598      761.72001     -89.860032      671.85997    
    214000   306.42747      0.0073076404   12.268209      760.255       -91.713824      668.54117    
    215000   294.33655      0.0073076404  -4.6402288      730.25711     -90.05706       640.20005    
    216000   309.56369      0.0073076404   6.9747352      768.03604     -93.74123       674.29481    
    217000   312.26358      0.0073076404   8.0374711      774.73454     -96.883532      677.85101    
    218000   282.67758      0.0073076404  -5.5475365      701.33087     -95.165009      606.16586    
    219000   296.61766      0.0073076404   0.44764442     735.91658     -92.10966       643.80692    
    220000   312.65943      0.0073076404   7.0822246      775.71667     -94.030385      681.68629    
    221000   304.31573      0.0073076404   16.825441      755.01572     -88.960803      666.05491    
    222000   288.10951      0.0073076404   4.1380018      714.80765     -88.650476      626.15717    
    223000   301.70971      0.0073076404   2.2249651      748.55011     -86.355275      662.19483    
    224000   320.06443      0.0073076404   2.5092287      794.08867     -92.336711      701.75195    
    225000   292.50519      0.0073076404   7.87905        725.71343     -96.810981      628.90245    
    226000   289.86148      0.0073076404   1.5762325      719.15431     -97.007319      622.14699    
    227000   301.15601      0.0073076404   1.1798204      747.17635     -94.169271      653.00708    
    228000   299.81386      0.0073076404   1.4617298      743.84645     -88.530763      655.31568    
    229000   315.83196      0.0073076404   5.764608       783.58779     -88.051077      695.53672    
    230000   292.40091      0.0073076404   6.8699475      725.45473     -91.049184      634.40554    
    231000   294.40986      0.0073076404   3.0921282      730.43897     -89.145505      641.29346    
    232000   306.72374      0.0073076404   1.0609319      760.99005     -93.839293      667.15076    
    233000   307.97032      0.0073076404   1.8909112      764.08285     -88.844401      675.23845    
    234000   301.19784      0.0073076404   2.4717465      747.28014     -89.574772      657.70537    
    235000   298.023        0.0073076404   6.5219494      739.40327     -91.759617      647.64365    
    236000   300.64271      0.0073076404   0.84482217     745.90284     -91.131286      654.77156    
    237000   304.70619      0.0073076404   6.9786902      755.98445     -89.914831      666.06962    
    238000   290.49871      0.0073076404   3.7042212      720.73532     -90.591895      630.14342    
    239000   307.18547      0.0073076404   2.9752668      762.13561     -89.809668      672.32594    
    240000   304.284        0.0073076404   5.7215685      754.93698     -86.192884      668.7441     
    241000   289.97109      0.0073076404   3.7979547      719.42626     -86.158499      633.26776    
    242000   303.70957      0.0073076404   2.5777807      753.51182     -93.295527      660.21629    
    243000   311.72649      0.0073076404   3.6443744      773.40201     -90.825766      682.57625    
    244000   304.15221      0.0073076404   5.1598488      754.61003     -92.571739      662.03829    
    245000   287.69733      0.0073076404   5.6361824      713.785       -91.400567      622.38443    
    246000   300.46823      0.0073076404   0.19433049     745.46995     -92.136228      653.33372    
    247000   323.11373      0.0073076404   1.9170984      801.65406     -91.451975      710.20209    
    248000   306.42888      0.0073076404   2.496902       760.2585      -91.988787      668.26971    
    249000   294.99965      0.0073076404   9.1584245      731.90227     -87.917733      643.98453    
    250000   294.06952      0.0073076404   3.1563113      729.59458     -84.114155      645.48043    
    251000   300.14212      0.0073076404   1.5814658      744.66087     -84.079779      660.58109    
    252000   297.66382      0.0073076404   1.4465464      738.51214     -88.592012      649.92013    
    253000   306.87808      0.0073076404   3.600283       761.37298     -83.667581      677.7054     
    254000   305.16033      0.0073076404   4.9529101      757.1112      -84.057477      673.05372    
    255000   295.61833      0.0073076404   4.4313202      733.43722     -83.954169      649.48305    
    256000   292.92286      0.0073076404   0.13156324     726.74969     -87.442713      639.30697    
    257000   315.81313      0.0073076404   4.5166465      783.54109     -88.5148        695.02629    
    258000   300.61884      0.0073076404   5.4672039      745.84362     -89.078498      656.76512    
    259000   285.09975      0.0073076404   4.1946534      707.34033     -91.267558      616.07278    
    260000   292.02833      0.0073076404   2.770718       724.53033     -89.14594       635.38439    
    261000   304.17172      0.0073076404   5.4697707      754.65842     -90.297317      664.3611     
    262000   278.02838      0.0073076404   2.0585101      689.79607     -91.834647      597.96143    
    263000   293.37906      0.0073076404   4.21728        727.88154     -90.32016       637.56138    
    264000   303.39396      0.0073076404   3.9392531      752.72877     -81.966351      670.76242    
    265000   298.74953      0.0073076404   5.9232185      741.20582     -80.475747      660.73007    
    266000   290.70127      0.0073076404   3.9018923      721.23785     -82.18937       639.04848    
    267000   304.29647      0.0073076404   1.8643179      754.96794     -81.490918      673.47702    
    268000   303.35456      0.0073076404   4.4424605      752.63102     -84.0653        668.56572    
    269000   292.79612      0.0073076404   3.5871616      726.43525     -88.957484      637.47777    
    270000   305.56078      0.0073076404   0.22058062     758.10473     -92.599285      665.50544    
    271000   312.13396      0.0073076404   4.6484366      774.41297     -96.671776      677.74119    
    272000   289.07229      0.0073076404   4.7129923      717.19633     -97.893377      619.30295    
    273000   301.27038      0.0073076404  -0.18420187     747.46013     -97.230832      650.22929    
    274000   307.6464       0.0073076404   2.869549       763.27919     -96.581677      666.69751    
    275000   308.26009      0.0073076404   8.2608779      764.80177     -94.175604      670.62617    
    276000   294.37901      0.0073076404   2.7953633      730.36244     -91.148494      639.21394    
    277000   301.32861      0.0073076404   1.6620712      747.60459     -88.979887      658.62471    
    278000   311.05567      0.0073076404   4.2060052      771.7377      -84.319474      687.41823    
    279000   290.10149      0.0073076404   3.9521582      719.74979     -89.137532      630.61226    
    280000   305.12163      0.0073076404   3.5995277      757.01517     -84.760552      672.25462    
    281000   296.28817      0.0073076404   5.0426162      735.09912     -84.178469      650.92065    
    282000   300.1148       0.0073076404   3.5526434      744.5931      -84.099915      660.49318    
    283000   312.04121      0.0073076404   4.0747979      774.18284     -80.838217      693.34463    
    284000   305.47491      0.0073076404   3.1325841      757.89167     -85.065157      672.82651    
    285000   299.08078      0.0073076404   6.0891106      742.02767     -83.357224      658.67044    
    286000   293.32561      0.0073076404   3.8031675      727.74893     -86.349453      641.39948    
    287000   309.28188      0.0073076404   3.9656875      767.33686     -86.850387      680.48648    
    288000   298.62639      0.0073076404   3.5672596      740.90031     -87.033284      653.86703    
    289000   304.2275       0.0073076404   3.1523113      754.7968      -88.595281      666.20152    
    290000   312.39715      0.0073076404   2.2321332      775.06594     -87.587963      687.47798    
    291000   298.74049      0.0073076404   4.4871698      741.18338     -88.060524      653.12286    
    292000   303.14299      0.0073076404   11.313313      752.10611     -89.57848       662.52763    
    293000   307.70683      0.0073076404   3.1070917      763.42913     -88.939032      674.4901     
    294000   295.09786      0.0073076404   1.4421248      732.14591     -93.472132      638.67378    
    295000   291.75388      0.0073076404   2.847298       723.84942     -91.86063       631.98879    
    296000   291.21569      0.0073076404   10.444587      722.51414     -90.681204      631.83294    
    297000   318.81925      0.0073076404   7.6388638      790.99934     -88.541088      702.45825    
    298000   311.74041      0.0073076404   2.2568287      773.43655     -89.349397      684.08715    
    299000   295.64234      0.0073076404  -1.6176087      733.4968      -85.802128      647.69467    
    300000   292.21377      0.0073076404   3.9366915      724.99041     -83.915776      641.07463    
    301000   295.63168      0.0073076404   4.3132495      733.47035     -84.074383      649.39597    
    302000   313.71811      0.0073076404   3.8510265      778.34329     -84.583913      693.75937    
    303000   303.54692      0.0073076404   3.3208053      753.10828     -85.195369      667.91291    
    304000   291.79833      0.0073076404   3.2753834      723.9597      -86.431381      637.52832    
    305000   303.15987      0.0073076404   2.6925998      752.14801     -86.201697      665.94631    
    306000   306.06267      0.0073076404   5.1307418      759.34991     -85.099131      674.25078    
    307000   283.5055       0.0073076404   4.2967666      703.38495     -90.263411      613.12154    
    308000   292.52528      0.0073076404   4.0909171      725.76327     -84.682008      641.08127    
    309000   314.09885      0.0073076404   4.0228484      779.28789     -87.14293       692.14496    
    310000   303.08282      0.0073076404   3.6750839      751.95684     -88.781238      663.1756     
    311000   286.95034      0.0073076404   3.8531992      711.93171     -90.898383      621.03332    
    312000   292.42092      0.0073076404   2.8869146      725.50436     -92.620695      632.88366    
    313000   313.68014      0.0073076404   3.3999486      778.24907     -88.196548      690.05252    
    314000   307.02514      0.0073076404   6.0047827      761.73784     -91.493328      670.24452    
    315000   306.59422      0.0073076404   3.9401197      760.6687      -88.184866      672.48384    
    316000   291.78421      0.0073076404   1.353535       723.92468     -89.287914      634.63676    
    317000   316.29161      0.0073076404   3.8609969      784.7282      -82.912906      701.81529    
    318000   305.23504      0.0073076404   4.5232025      757.29654     -86.759472      670.53706    
    319000   297.93083      0.0073076404   0.7271287      739.1746      -92.010571      647.16403    
    320000   306.31192      0.0073076404   4.4776138      759.96833     -87.737658      672.23067    
    321000   306.38313      0.0073076404   8.8972841      760.14498     -88.405496      671.73949    
    322000   292.42201      0.0073076404   2.0196791      725.50708     -91.975351      633.53172    
    323000   302.44057      0.0073076404   2.0533526      750.3634      -93.716405      656.64699    
    324000   311.48532      0.0073076404   4.0366962      772.80367     -88.947543      683.85613    
    325000   306.67149      0.0073076404   8.2031568      760.86042     -90.192016      670.66841    
    326000   290.87245      0.0073076404   4.2360952      721.66257     -85.882955      635.77961    
    327000   304.93995      0.0073076404   2.9057211      756.56443     -85.94597       670.61846    
    328000   316.3191       0.0073076404  -5.993498       784.79642     -82.265862      702.53056    
    329000   297.99486      0.0073076404   6.0659953      739.33345     -81.992039      657.34141    
    330000   296.03279      0.0073076404   3.4531533      734.46551     -79.559774      654.90573    
    331000   301.00772      0.0073076404  -5.699862       746.80846     -82.818908      663.98955    
    332000   313.06432      0.0073076404   5.7813329      776.72121     -78.101643      698.61957    
    333000   299.08986      0.0073076404   9.5999745      742.0502      -78.544094      663.5061     
    334000   292.65252      0.0073076404   2.0946687      726.07898     -77.622023      648.45695    
    335000   307.77644      0.0073076404   2.1537753      763.60183     -76.688822      686.913      
    336000   305.63001      0.0073076404   3.7430933      758.27647     -77.232817      681.04366    
    337000   307.94957      0.0073076404   17.561168      764.03137     -78.205997      685.82538    
    338000   309.04202      0.0073076404   5.2639477      766.74177     -76.401167      690.3406     
    339000   310.00269      0.0073076404   0.85031561     769.12521     -72.994699      696.13052    
    340000   314.26963      0.0073076404   2.4182892      779.71161     -74.97661       704.735      
    341000   292.11742      0.0073076404   8.2820613      724.75137     -75.911433      648.83993    
    342000   309.21087      0.0073076404  -4.051672       767.1607      -71.348509      695.81219    
    343000   306.85513      0.0073076404   4.3141107      761.31603     -78.927348      682.38868    
    344000   292.09262      0.0073076404   2.6767039      724.68983     -72.995745      651.69409    
    345000   318.20381      0.0073076404   6.282346       789.47241     -74.709384      714.76303    
    346000   308.20644      0.0073076404   7.485932       764.66867     -78.082898      686.58578    
    347000   287.21815      0.0073076404   5.808704       712.59615     -76.288733      636.30741    
    348000   291.26034      0.0073076404   4.3784721      722.62493     -78.994377      643.63055    
    349000   308.88579      0.0073076404   1.7264535      766.35416     -81.709198      684.64497    
    350000   310.59626      0.0073076404   4.1870489      770.59788     -83.178339      687.41954    
    351000   299.20677      0.0073076404   4.8763457      742.34024     -83.534045      658.8062     
    352000   297.15843      0.0073076404   4.8415976      737.25825     -79.699031      657.55922    
    353000   300.48877      0.0073076404  -1.1581249      745.52092     -78.796369      666.72456    
    354000   307.82526      0.0073076404   5.04997        763.72295     -72.760896      690.96205    
    355000   290.67363      0.0073076404   3.557916       721.1693      -73.632201      647.5371     
    356000   287.74418      0.0073076404   0.63514356     713.90124     -74.27767       639.62357    
    357000   308.39548      0.0073076404   1.9402091      765.13769     -71.664595      693.4731     
    358000   303.48883      0.0073076404   4.1418258      752.96416     -74.251316      678.71284    
    359000   291.22571      0.0073076404   4.2157849      722.53902     -74.957215      647.5818     
    360000   288.12168      0.0073076404   3.6943951      714.83782     -74.492425      640.3454     
    361000   313.79108      0.0073076404   4.2454577      778.52433     -75.983063      702.54127    
    362000   298.55272      0.0073076404   4.2865892      740.71753     -79.758075      660.95945    
    363000   294.51661      0.0073076404   0.84728886     730.70382     -77.806101      652.89772    
    364000   310.64903      0.0073076404   4.2796417      770.7288      -74.162223      696.56657    
    365000   294.74028      0.0073076404   4.0323263      731.25877     -74.390797      656.86797    
    366000   291.45998      0.0073076404   3.4414054      723.12025     -75.94993       647.17032    
    367000   301.25674      0.0073076404   3.4255475      747.42626     -72.597238      674.82903    
    368000   307.44202      0.0073076404   3.9819712      762.77213     -71.318968      691.45317    
    369000   307.57129      0.0073076404   3.2196916      763.09286     -74.148782      688.94408    
    370000   301.82809      0.0073076404   3.8762915      748.84382     -74.023912      674.8199     
    371000   300.30253      0.0073076404   4.8387214      745.05885     -69.298517      675.76033    
    372000   306.56995      0.0073076404   1.9396056      760.6085      -69.623877      690.98463    
    373000   298.06056      0.0073076404   2.8890774      739.49646     -74.231132      665.26532    
    374000   302.16308      0.0073076404   6.0306999      749.67493     -74.547354      675.12757    
    375000   311.45776      0.0073076404   6.3941895      772.73528     -72.192792      700.54249    
    376000   298.8423       0.0073076404   2.8372315      741.43599     -69.640752      671.79524    
    377000   286.72749      0.0073076404  -1.7018297      711.3788      -65.375784      646.00301    
    378000   298.38656      0.0073076404   5.0085171      740.30527     -66.730472      673.5748     
    379000   314.83138      0.0073076404   6.2485391      781.10533     -68.346685      712.75865    
    380000   300.76491      0.0073076404   0.90370255     746.20602     -70.331145      675.87488    
    381000   281.20766      0.0073076404   3.5721435      697.68396     -69.396643      628.28732    
    382000   287.60638      0.0073076404   5.6671219      713.55935     -63.657082      649.90226    
    383000   293.8165       0.0073076404   5.1169107      728.96684     -67.621448      661.34539    
    384000   303.53637      0.0073076404   3.3671895      753.0821      -68.000526      685.08157    
    385000   301.03358      0.0073076404   0.70590197     746.8726      -67.923576      678.94902    
    386000   297.15791      0.0073076404   2.5924216      737.25696     -70.29519       666.96177    
    387000   298.67843      0.0073076404   4.7402589      741.02942     -68.310064      672.71936    
    388000   301.96036      0.0073076404   3.8863838      749.17198     -66.477509      682.69447    
    389000   296.01967      0.0073076404   3.3466311      734.43296     -71.193203      663.23976    
    390000   293.25413      0.0073076404   4.8305841      727.57157     -71.736666      655.83491    
    391000   309.55472      0.0073076404   3.8685672      768.01379     -69.706903      698.30689    
    392000   302.5517       0.0073076404   2.8315399      750.63911     -65.568894      685.07022    
    393000   292.88269      0.0073076404   3.7195625      726.65002     -65.616396      661.03362    
    394000   296.9145       0.0073076404   3.8460581      736.65307     -63.569039      673.08403    
    395000   323.83096      0.0073076404   4.066983       803.43353     -63.029156      740.40437    
    396000   294.37861      0.0073076404   3.4210743      730.36145     -69.314266      661.04719    
    397000   290.78166      0.0073076404   3.3783908      721.43731     -65.439553      655.99776    
    398000   314.08903      0.0073076404   3.8696379      779.26355     -66.079069      713.18448    
    399000   307.41503      0.0073076404   5.3430698      762.70517     -62.952778      699.75239    
    400000   280.77253      0.0073076404   3.5462442      696.60438     -65.010408      631.59397    
    401000   306.6744       0.0073076404   3.715108       760.86764     -68.613177      692.25447    
    402000   311.45148      0.0073076404   3.9015917      772.71971     -65.860025      706.85969    
    403000   294.72249      0.0073076404   4.7268368      731.21461     -65.199485      666.01513    
    404000   288.42399      0.0073076404   2.3677261      715.58787     -62.807382      652.78049    
    405000   297.57501      0.0073076404   3.98255        738.29181     -59.411753      678.88005    
    406000   310.89837      0.0073076404   4.1792496      771.34743     -61.898153      709.44927    
    407000   295.90126      0.0073076404   3.653521       734.13917     -61.139622      672.99955    
    408000   293.0194       0.0073076404   3.7999675      726.98921     -62.421672      664.56754    
    409000   290.90005      0.0073076404   3.6071976      721.73104     -63.051068      658.67997    
    410000   309.56354      0.0073076404   3.8485308      768.03568     -61.277247      706.75843    
    411000   308.02701      0.0073076404   7.6616701      764.22351     -59.948908      704.2746     
    412000   294.12514      0.0073076404   3.713456       729.73259     -57.994157      671.73843    
    413000   314.71897      0.0073076404   4.1003755      780.82645     -60.296614      720.52984    
    414000   307.69001      0.0073076404   3.7146325      763.38739     -56.760771      706.62661    
    415000   292.02377      0.0073076404   2.8319606      724.51904     -52.879559      671.63948    
    416000   286.83603      0.0073076404   2.805171       711.64809     -54.09563       657.55246    
    417000   312.33068      0.0073076404   4.9404989      774.90102     -60.146819      714.7542     
    418000   307.33865      0.0073076404   0.35739523     762.51566     -59.07269       703.44297    
    419000   284.05829      0.0073076404   6.3623638      704.75645     -61.036154      643.7203     
    420000   310.38605      0.0073076404   12.95192       770.07635     -62.375088      707.70126    
    421000   319.66471      0.0073076404   2.2822382      793.09697     -61.995502      731.10146    
    422000   290.63175      0.0073076404   4.3970865      721.06538     -57.135814      663.92956    
    423000   284.814        0.0073076404  -0.5830866      706.63139     -59.402428      647.22896    
    424000   301.60135      0.0073076404   6.5717955      748.28125     -58.482651      689.7986     
    425000   295.59071      0.0073076404   0.36631433     733.36869     -55.588434      677.78025    
    426000   288.6534       0.0073076404   6.0193229      716.15703     -57.558209      658.59882    
    427000   303.93487      0.0073076404   5.5974171      754.0708      -56.879366      697.19143    
    428000   300.00321      0.0073076404   2.9714084      744.31622     -57.270829      687.04539    
    429000   297.23352      0.0073076404   2.0079542      737.44456     -51.068941      686.37562    
    430000   297.53302      0.0073076404   6.5704186      738.18761     -51.072082      687.11553    
    431000   306.03394      0.0073076404   1.2589742      759.27863     -50.395809      708.88282    
    432000   300.26998      0.0073076404   1.1337608      744.9781      -47.975005      697.0031     
    433000   300.93182      0.0073076404   5.4843861      746.62015     -53.356567      693.26358    
    434000   298.4568       0.0073076404   3.8006732      740.47955     -50.916195      689.56336    
    435000   303.33984      0.0073076404   1.2701988      752.5945      -52.115351      700.47915    
    436000   308.30683      0.0073076404   6.6117052      764.91774     -48.19223       716.72551    
    437000   302.92301      0.0073076404   5.7218971      751.56033     -52.737087      698.82325    
    438000   302.61624      0.0073076404   0.63901416     750.79923     -51.414273      699.38495    
    439000   296.40503      0.0073076404  -3.4847363      735.38905     -50.685964      684.70308    
    440000   300.82117      0.0073076404   3.9682996      746.34562     -52.836851      693.50877    
    441000   304.68339      0.0073076404   5.1422707      755.92788     -47.504887      708.42299    
    442000   296.34143      0.0073076404   3.8840131      735.23125     -52.367476      682.86378    
    443000   299.56543      0.0073076404   3.6066528      743.23008     -51.725615      691.50447    
    444000   293.97432      0.0073076404   3.5754085      729.35839     -48.244883      681.11351    
    445000   300.35415      0.0073076404   4.0816896      745.18692     -49.011089      696.17584    
    446000   288.74317      0.0073076404   1.3972976      716.37976     -49.934547      666.44521    
    447000   306.59912      0.0073076404   4.0385869      760.68087     -47.880537      712.80034    
    448000   314.21117      0.0073076404   3.8905591      779.56657     -50.975524      728.59105    
    449000   295.04346      0.0073076404   6.3260881      732.01095     -46.034935      685.97601    
    450000   288.07976      0.0073076404   4.3299968      714.73382     -49.93801       664.7958     
    451000   293.22791      0.0073076404   3.0199488      727.50653     -49.489885      678.01665    
    452000   297.92193      0.0073076404   4.0389824      739.15253     -51.578752      687.57378    
    453000   310.23645      0.0073076404   4.0610627      769.70519     -55.504371      714.20082    
    454000   299.95371      0.0073076404   2.6844736      744.19341     -54.891907      689.30151    
    455000   300.23386      0.0073076404   3.7149931      744.88848     -57.789749      687.09874    
    456000   292.32225      0.0073076404   3.4824967      725.25956     -53.513299      671.74626    
    457000   301.74352      0.0073076404   5.2697833      748.63399     -48.99931       699.63468    
    458000   301.33582      0.0073076404   3.9909985      747.62248     -48.535298      699.08718    
    459000   301.54043      0.0073076404   4.0109869      748.13011     -49.196427      698.93368    
    460000   293.32055      0.0073076404   3.0649793      727.73636     -48.49953       679.23683    
    461000   303.27541      0.0073076404   1.7219268      752.43464     -47.866343      704.5683     
    462000   301.11628      0.0073076404   4.5347473      747.07778     -48.894537      698.18325    
    463000   289.33054      0.0073076404   4.2067479      717.83703     -47.87223       669.9648     
    464000   297.47611      0.0073076404   3.2867913      738.04642     -51.050011      686.99641    
    465000   289.28343      0.0073076404   2.9387589      717.72016     -51.467377      666.25278    
    466000   293.68841      0.0073076404   3.6133258      728.64904     -50.535048      678.11399    
    467000   306.97071      0.0073076404   2.6360998      761.6028      -48.70444       712.89836    
    468000   307.72443      0.0073076404   4.3685643      763.47279     -49.0081        714.46469    
    469000   282.99024      0.0073076404   6.0286639      702.10659     -50.344783      651.76181    
    470000   300.11775      0.0073076404   2.522883       744.6004      -47.203496      697.39691    
    471000   319.80961      0.0073076404   1.0724729      793.45646     -45.929849      747.52662    
    472000   304.94522      0.0073076404   3.9543744      756.57749     -47.804122      708.77336    
    473000   286.48277      0.0073076404   5.8607494      710.77166     -47.869258      662.9024     
    474000   297.308        0.0073076404   0.095677287    737.62934     -49.218288      688.41105    
    475000   305.64507      0.0073076404   3.1310246      758.31383     -51.595888      706.71795    
    476000   303.16487      0.0073076404   7.0868395      752.16039     -51.637612      700.52278    
    477000   298.70014      0.0073076404   4.9769704      741.08329     -48.201112      692.88218    
    478000   299.51403      0.0073076404   2.4818062      743.10256     -46.782544      696.32001    
    479000   313.84954      0.0073076404   2.5685551      778.66935     -50.302172      728.36718    
    480000   298.74403      0.0073076404   6.2476541      741.19218     -48.992468      692.19971    
    481000   298.72603      0.0073076404   6.2850046      741.1475      -44.466829      696.68067    
    482000   296.44747      0.0073076404   4.0330541      735.49434     -43.12033       692.37401    
    483000   287.74318      0.0073076404   2.2141519      713.89877     -46.672178      667.22659    
    484000   300.49376      0.0073076404   3.4739259      745.5333      -42.89496       702.63835    
    485000   314.79112      0.0073076404   4.4619139      781.00544     -47.221611      733.78383    
    486000   301.37416      0.0073076404   3.9740573      747.71759     -44.417513      703.30008    
    487000   277.69801      0.0073076404   3.4167689      688.97642     -40.945479      648.03095    
    488000   302.82816      0.0073076404   3.9411669      751.32501     -39.336152      711.98885    
    489000   302.88605      0.0073076404   3.430112       751.46865     -39.611611      711.85704    
    490000   296.77828      0.0073076404   4.2164192      736.31508     -34.813755      701.50133    
    491000   297.216        0.0073076404   3.8771757      737.40108     -37.724959      699.67612    
    492000   309.60749      0.0073076404   4.237599       768.14473     -37.468344      730.67638    
    493000   309.51316      0.0073076404   3.991349       767.91068     -37.504203      730.40647    
    494000   305.65235      0.0073076404   3.3428619      758.3319      -37.725744      720.60616    
    495000   298.05412      0.0073076404   5.9996496      739.48048     -36.712922      702.76756    
    496000   304.6651       0.0073076404   4.8207657      755.88251     -39.536838      716.34567    
    497000   307.54956      0.0073076404   2.4650744      763.03893     -39.907781      723.13114    
    498000   291.04758      0.0073076404   4.4745165      722.09707     -40.098772      681.9983     
    499000   303.05332      0.0073076404   6.1769449      751.88364     -40.424339      711.4593     
    500000   306.19278      0.0073076404   2.8988407      759.67273     -39.864868      719.80786    
    501000   302.73428      0.0073076404   3.5176199      751.09209     -38.504115      712.58797    
    502000   301.43164      0.0073076404   6.597267       747.86021     -38.141054      709.71916    
    503000   296.95043      0.0073076404   3.5154023      736.74219     -40.408281      696.33391    
    504000   302.34011      0.0073076404   5.4654321      750.11416     -43.559039      706.55512    
    505000   309.55555      0.0073076404   2.5287704      768.01585     -42.011462      726.00439    
    506000   297.16617      0.0073076404   1.7951451      737.27747     -45.888896      691.38857    
    507000   293.738        0.0073076404   4.4282164      728.77207     -43.769495      685.00257    
    508000   292.88611      0.0073076404   5.7850544      726.65852     -41.248248      685.41028    
    509000   313.78914      0.0073076404   5.4650821      778.51951     -40.155156      738.36435    
    510000   302.05126      0.0073076404  -1.3553446      749.39751     -40.857343      708.54016    
    511000   296.11829      0.0073076404   7.257977       734.67763     -38.001739      696.67589    
    512000   299.64333      0.0073076404   9.8582632      743.42336     -38.875469      704.54789    
    513000   299.73287      0.0073076404   3.6688038      743.64552     -39.464698      704.18082    
    514000   299.28043      0.0073076404   1.9733728      742.52299     -38.792979      703.73001    
    515000   291.99733      0.0073076404   7.5981732      724.45342     -36.993532      687.45989    
    516000   294.37739      0.0073076404   6.1339227      730.35843     -39.663148      690.69528    
    517000   304.53167      0.0073076404   3.1229175      755.55147     -39.218589      716.33288    
    518000   299.15311      0.0073076404  -1.6487078      742.20712     -38.269547      703.93757    
    519000   300.21668      0.0073076404   5.5437418      744.84585     -35.087448      709.7584     
    520000   296.40845      0.0073076404   10.583421      735.39754     -35.686455      699.71109    
    521000   303.82899      0.0073076404   3.3033904      753.80811     -32.290512      721.5176     
    522000   315.90075      0.0073076404   1.505237       783.75847     -33.740287      750.01818    
    523000   297.95189      0.0073076404   1.6794393      739.22685     -34.904384      704.32247    
    524000   279.16221      0.0073076404   7.9871339      692.60913     -34.563374      658.04575    
    525000   306.30455      0.0073076404   5.286241       759.95002     -37.606424      722.3436     
    526000   304.86697      0.0073076404  -1.6471951      756.38335     -40.524573      715.85878    
    527000   298.40567      0.0073076404   4.2798111      740.35271     -43.128468      697.22424    
    528000   293.88142      0.0073076404   6.0992655      729.12791     -36.703057      692.42485    
    529000   307.09914      0.0073076404   5.4361984      761.92143     -36.307596      725.61384    
    530000   315.8803       0.0073076404   4.0321045      783.70774     -34.940264      748.76748    
    531000   284.51504      0.0073076404   3.2863398      705.88966     -38.064909      667.82475    
    532000   296.64689      0.0073076404   5.8794778      735.9891      -39.19156       696.79754    
    533000   303.03283      0.0073076404  -4.4689207      751.8328      -38.087155      713.74565    
    534000   303.71612      0.0073076404   6.1268097      753.52805     -34.510832      719.01722    
    535000   309.54515      0.0073076404   3.2003048      767.99005     -40.778808      727.21124    
    536000   303.13042      0.0073076404   1.569402       752.07492     -38.163954      713.91097    
    537000   309.08773      0.0073076404   3.5249436      766.85518     -39.422195      727.43299    
    538000   308.15622      0.0073076404   7.7428366      764.54408     -34.865803      729.67828    
    539000   302.23157      0.0073076404   4.9266341      749.84486     -38.750865      711.094      
    540000   295.12132      0.0073076404  -0.92989774     732.20412     -36.983749      695.22037    
    541000   291.39045      0.0073076404   2.2880798      722.94774     -35.317243      687.6305     
    542000   311.92063      0.0073076404   9.1132812      773.88367     -34.735777      739.14789    
    543000   306.38572      0.0073076404   1.7984569      760.15141     -38.114298      722.03712    
    544000   291.01341      0.0073076404  -0.5138004      722.01228     -37.93909       684.07319    
    545000   292.58255      0.0073076404   5.0288146      725.90536     -41.734147      684.17122    
    546000   295.68702      0.0073076404   7.3500381      733.60765     -41.790566      691.81709    
    547000   312.86284      0.0073076404   6.8083007      776.22133     -42.964681      733.25665    
    548000   296.29817      0.0073076404   2.2141754      735.12392     -40.783676      694.34025    
    549000   293.52331      0.0073076404   1.9838268      728.23943     -37.305553      690.93388    
    550000   301.51144      0.0073076404   5.2095213      748.0582      -38.318894      709.7393     
    551000   306.44286      0.0073076404   4.5690195      760.29319     -39.0199        721.27329    
    552000   293.00797      0.0073076404   1.223139       726.96086     -33.496949      693.46391    
    553000   295.28437      0.0073076404   4.4816899      732.60865     -35.352425      697.25623    
    554000   325.32771      0.0073076404   5.1406355      807.14702     -36.874694      770.27233    
    555000   314.92676      0.0073076404   4.2563401      781.34198     -40.095543      741.24644    
    556000   289.38231      0.0073076404   2.3297098      717.9655      -40.799257      677.16624    
    557000   295.9535       0.0073076404   2.9757295      734.2688      -39.752593      694.5162     
    558000   299.40873      0.0073076404   6.9877254      742.84132     -43.497412      699.34391    
    559000   300.73288      0.0073076404   5.5016182      746.12656     -42.525493      703.60107    
    560000   311.19717      0.0073076404   2.5314634      772.08875     -42.774689      729.31406    
    561000   302.77805      0.0073076404   2.2047857      751.20068     -43.542454      707.65822    
    562000   289.99316      0.0073076404   4.8002261      719.48103     -43.799791      675.68124    
    563000   297.53556      0.0073076404   3.8602575      738.19393     -45.017581      693.17635    
    564000   290.30376      0.0073076404  -0.84002816     720.25162     -44.720388      675.53123    
    565000   305.85892      0.0073076404   4.5167128      758.84441     -43.314083      715.53032    
    566000   312.21872      0.0073076404   5.7816364      774.62326     -39.909851      734.7134     
    567000   298.48325      0.0073076404   3.1504998      740.54517     -40.040943      700.50422    
    568000   303.45154      0.0073076404   3.3407251      752.87163     -38.053476      714.81815    
    569000   292.15492      0.0073076404   4.4465158      724.84442     -35.756262      689.08816    
    570000   302.44261      0.0073076404   4.751175       750.36845     -38.366209      712.00224    
    571000   301.67791      0.0073076404   3.4676654      748.47122     -38.272658      710.19856    
    572000   301.85531      0.0073076404   3.3398354      748.91135     -39.908279      709.00307    
    573000   303.53615      0.0073076404   4.46265        753.08155     -37.075192      716.00636    
    574000   310.44032      0.0073076404   3.8044625      770.21098     -37.623502      732.58748    
    575000   297.20531      0.0073076404   3.7323117      737.37457     -38.678388      698.69618    
    576000   294.24671      0.0073076404   4.2024711      730.03419     -39.695843      690.33835    
    577000   324.34785      0.0073076404   4.148778       804.71596     -40.207517      764.50844    
    578000   321.67702      0.0073076404   4.0738471      798.08955     -42.039495      756.05005    
    579000   290.7508       0.0073076404   3.8362949      721.36074     -41.368572      679.99217    
    580000   294.97045      0.0073076404   4.9192652      731.82981     -36.425948      695.40386    
    581000   302.92833      0.0073076404   3.949149       751.57353     -38.335513      713.23802    
    582000   303.33414      0.0073076404   4.1178713      752.58037     -38.9621        713.61827    
    583000   300.94957      0.0073076404   4.2967688      746.66419     -39.331956      707.33223    
    584000   289.22767      0.0073076404   2.7553475      717.58182     -35.818992      681.76283    
    585000   300.09193      0.0073076404   3.9491624      744.53636     -35.388944      709.14741    
    586000   287.98582      0.0073076404   4.2243229      714.50075     -33.856497      680.64425    
    587000   303.54882      0.0073076404   4.4330162      753.11298     -34.312337      718.80065    
    588000   298.46672      0.0073076404   3.7845391      740.50416     -34.802318      705.70185    
    589000   293.92756      0.0073076404   3.4314469      729.24237     -35.197653      694.04471    
    590000   300.96591      0.0073076404   3.9967098      746.70472     -35.651567      711.05315    
    591000   316.9172       0.0073076404   4.1620835      786.2803      -35.720999      750.5593     
    592000   298.69812      0.0073076404   3.8114778      741.07826     -34.017252      707.06101    
    593000   295.51314      0.0073076404   3.6954304      733.17626     -34.932317      698.24394    
    594000   302.68343      0.0073076404   4.6954301      750.96594     -35.719548      715.24639    
    595000   303.61217      0.0073076404   4.1386525      753.27016     -34.54959       718.72058    
    596000   301.42468      0.0073076404   4.6762213      747.84293     -37.257266      710.58567    
    597000   295.87266      0.0073076404   4.5957824      734.06823     -35.111073      698.95716    
    598000   297.857        0.0073076404   3.9663002      738.99144     -33.690341      705.3011     
    599000   304.37506      0.0073076404   4.0036721      755.16292     -36.391239      718.77168    
    600000   299.78629      0.0073076404   3.0247044      743.77806     -34.792464      708.98559    
    601000   308.16536      0.0073076404   3.3984875      764.56674     -32.622281      731.94446    
    602000   302.27235      0.0073076404   3.8929889      749.94604     -32.148882      717.79716    
    603000   313.90071      0.0073076404   3.5213755      778.79632     -30.838349      747.95797    
    604000   288.60701      0.0073076404   4.5001042      716.04194     -30.719938      685.322      
    605000   281.97182      0.0073076404   3.906469       699.57985     -30.471895      669.10796    
    606000   306.01436      0.0073076404   5.542437       759.23007     -30.966491      728.26358    
    607000   305.66849      0.0073076404   4.0504097      758.37195     -28.481997      729.88996    
    608000   299.04233      0.0073076404   3.4029843      741.93225     -29.606356      712.3259     
    609000   293.97512      0.0073076404   4.0215982      729.36038     -31.965231      697.39515    
    610000   300.51357      0.0073076404   4.0898753      745.58244     -30.68716       714.89528    
    611000   308.57086      0.0073076404   3.9644538      765.57281     -33.088595      732.48422    
    612000   305.24488      0.0073076404   3.9783065      757.32096     -31.931357      725.3896     
    613000   294.17771      0.0073076404   4.9699448      729.86301     -29.639601      700.22341    
    614000   301.47919      0.0073076404   4.3626028      747.97819     -33.513908      714.46428    
    615000   311.51087      0.0073076404   1.4835785      772.86705     -35.260999      737.60605    
    616000   285.46393      0.0073076404   1.9868767      708.24389     -34.368406      673.87548    
    617000   291.00502      0.0073076404   5.6870673      721.99148     -34.071308      687.92017    
    618000   302.91892      0.0073076404   1.5532191      751.55018     -32.244065      719.30612    
    619000   304.68255      0.0073076404  -0.84705716     755.9258      -31.588224      724.33758    
    620000   301.47374      0.0073076404   4.1871601      747.96465     -30.764549      717.2001     
    621000   298.09983      0.0073076404   5.384906       739.5939      -30.510138      709.08376    
    622000   300.59963      0.0073076404   6.3883882      745.79598     -33.310812      712.48517    
    623000   311.72315      0.0073076404   3.9772616      773.39373     -28.676723      744.71701    
    624000   303.15454      0.0073076404   3.8766937      752.13477     -31.609078      720.52569    
    625000   292.69333      0.0073076404   4.0810942      726.18022     -32.758085      693.42214    
    626000   315.456        0.0073076404   5.3420549      782.65503     -32.484611      750.17042    
    627000   310.12161      0.0073076404   3.7131967      769.42026     -34.028415      735.39185    
    628000   287.60051      0.0073076404   4.3645482      713.5448      -32.891126      680.65368    
    629000   276.9884       0.0073076404   3.8556302      687.21585     -32.984889      654.23096    
    630000   307.76713      0.0073076404   4.8055509      763.57874     -27.628695      735.95005    
    631000   301.18421      0.0073076404   2.9836578      747.24632     -30.903145      716.34317    
    632000   305.57835      0.0073076404   3.9297555      758.14832     -29.995259      728.15306    
    633000   306.16775      0.0073076404   2.7852768      759.61063     -34.350972      725.25965    
    634000   307.39327      0.0073076404   4.2379667      762.65117     -35.043477      727.60769    
    635000   294.67911      0.0073076404   3.9979223      731.10698     -34.108821      696.99816    
    636000   300.44877      0.0073076404   4.0993847      745.42168     -36.10581       709.31587    
    637000   316.07596      0.0073076404   3.8493796      784.19317     -34.916713      749.27646    
    638000   298.79076      0.0073076404   4.236925       741.30811     -36.428027      704.88008    
    639000   294.5066       0.0073076404   5.2052975      730.67899     -35.622991      695.056      
    640000   306.69286      0.0073076404   3.9012032      760.91345     -34.175201      726.73825    
    641000   295.07968      0.0073076404   3.2169326      732.10083     -32.386902      699.71392    
    642000   299.49047      0.0073076404   4.0284213      743.04412     -32.434161      710.60996    
    643000   306.05784      0.0073076404   5.2693574      759.33793     -29.820601      729.51733    
    644000   302.37635      0.0073076404   3.2472558      750.20407     -30.573108      719.63096    
    645000   295.35852      0.0073076404   3.8584085      732.79263     -31.316242      701.47639    
    646000   307.75798      0.0073076404   4.3470128      763.55604     -28.853759      734.70228    
    647000   309.71861      0.0073076404   4.1277194      768.42042     -33.738182      734.68224    
    648000   299.09857      0.0073076404   4.1270493      742.0718      -30.896417      711.17538    
    649000   286.47692      0.0073076404   0.15573692     710.75714     -32.410906      678.34623    
    650000   299.1461       0.0073076404   2.7505023      742.18972     -29.713318      712.4764     
    651000   297.32092      0.0073076404   4.1138487      737.6614      -32.798516      704.86289    
    652000   294.22234      0.0073076404   5.6569092      729.97374     -30.840691      699.13305    
    653000   301.6058       0.0073076404   3.150497       748.29231     -32.638464      715.65385    
    654000   302.55104      0.0073076404   2.0699009      750.63747     -30.334076      720.30339    
    655000   301.18192      0.0073076404   4.6801814      747.24064     -32.010095      715.23055    
    656000   297.89995      0.0073076404   4.5748269      739.09799     -33.602784      705.49521    
    657000   287.52428      0.0073076404   2.4571914      713.35566     -30.87029       682.48537    
    658000   296.67379      0.0073076404   2.7056816      736.05585     -27.619351      708.4365     
    659000   304.63201      0.0073076404   3.517153       755.80041     -25.014579      730.78583    
    660000   298.4528       0.0073076404   3.7892903      740.46963     -27.959236      712.5104     
    661000   297.42336      0.0073076404   2.4538378      737.91554     -27.20544       710.7101     
    662000   301.58763      0.0073076404   4.2458911      748.24722     -27.084216      721.163      
    663000   322.6867       0.0073076404   4.280018       800.5946      -30.405805      770.1888     
    664000   307.32035      0.0073076404   2.97549        762.47025     -29.680043      732.79021    
    665000   286.63354      0.0073076404   3.3866303      711.14571     -32.282603      678.8631     
    666000   300.45991      0.0073076404   3.7387276      745.44931     -30.388874      715.06044    
    667000   311.76457      0.0073076404   4.4432169      773.49648     -29.375195      744.12129    
    668000   299.15907      0.0073076404   2.5881364      742.22191     -30.534892      711.68702    
    669000   301.13225      0.0073076404   4.0680406      747.11741     -34.856983      712.26043    
    670000   302.02582      0.0073076404   4.0425248      749.33437     -35.868319      713.46606    
    671000   294.09109      0.0073076404   4.1488724      729.6481      -34.343168      695.30493    
    672000   290.26727      0.0073076404   1.896028       720.16109     -29.595495      690.56559    
    673000   300.05306      0.0073076404   4.6778367      744.43991     -27.703632      716.73628    
    674000   309.94043      0.0073076404   3.8694281      768.97074     -27.919863      741.05088    
    675000   297.46897      0.0073076404   3.8812575      738.02873     -26.415388      711.61334    
    676000   291.42155      0.0073076404   3.1004843      723.0249      -27.682417      695.34248    
    677000   296.71429      0.0073076404   3.916988       736.15632     -23.505341      712.65098    
    678000   312.21962      0.0073076404   5.0136431      774.62548     -29.619834      745.00564    
    679000   300.69589      0.0073076404   3.8192257      746.03479     -28.371887      717.66291    
    680000   285.71107      0.0073076404   4.0792592      708.85704     -24.213958      684.64308    
    681000   293.73872      0.0073076404   3.8183322      728.77386     -31.221217      697.55265    
    682000   293.00687      0.0073076404   4.3783113      726.95811     -28.4218        698.53631    
    683000   314.1415       0.0073076404   4.349213       779.39372     -27.374902      752.01881    
    684000   303.52026      0.0073076404   4.5733465      753.04213     -30.429897      722.61224    
    685000   301.47936      0.0073076404   4.1243866      747.9786      -27.781159      720.19744    
    686000   296.00694      0.0073076404   2.6201171      734.40138     -26.937063      707.46432    
    687000   303.68499      0.0073076404   4.0693854      753.45083     -26.26873       727.1821     
    688000   297.44994      0.0073076404   4.5494745      737.98149     -24.597935      713.38356    
    689000   293.0409       0.0073076404   3.9299613      727.04256     -24.081464      702.96109    
    690000   307.48598      0.0073076404   3.4798451      762.8812      -26.160111      736.72109    
    691000   305.79589      0.0073076404   4.7270006      758.68803     -21.52944       737.15859    
    692000   297.15666      0.0073076404   4.0109158      737.25385     -22.018248      715.23561    
    693000   298.12535      0.0073076404   4.2207289      739.65721     -20.574415      719.0828     
    694000   304.81447      0.0073076404   4.3876804      756.2531      -19.792652      736.46044    
    695000   298.10401      0.0073076404   4.903713       739.60426     -19.488683      720.11558    
    696000   294.03201      0.0073076404   3.9966001      729.50152     -20.575234      708.92629    
    697000   310.12167      0.0073076404   2.8710179      769.42041     -21.232272      748.18814    
    698000   308.9394       0.0073076404   3.7493099      766.48718     -23.722441      742.76474    
    699000   303.48282      0.0073076404   4.4168969      752.94923     -21.254558      731.69467    
    700000   293.12783      0.0073076404   4.2060548      727.25824     -24.63695       702.62129    
    701000   290.89569      0.0073076404   3.942541       721.72022     -26.43626       695.28396    
    702000   320.84015      0.0073076404   4.0004264      796.01326     -23.590442      772.42282    
    703000   311.46614      0.0073076404   2.1405179      772.75608     -23.809064      748.94702    
    704000   306.311        0.0073076404   3.7244951      759.96604     -24.98395       734.98209    
    705000   295.64067      0.0073076404   5.3076962      733.49266     -22.837807      710.65485    
    706000   302.27854      0.0073076404   4.1978054      749.96139     -27.206681      722.75471    
    707000   301.21799      0.0073076404   3.0905643      747.33014     -26.235844      721.0943     
    708000   306.31098      0.0073076404   3.0240636      759.96599     -28.714039      731.25195    
    709000   299.48895      0.0073076404   4.642862       743.04033     -26.242205      716.79812    
    710000   294.92976      0.0073076404   3.2256401      731.72886     -26.907212      704.82164    
    711000   302.75829      0.0073076404   4.1244247      751.15167     -26.512789      724.63888    
    712000   304.44807      0.0073076404   4.5437735      755.34406     -25.826405      729.51766    
    713000   304.64062      0.0073076404   4.4858786      755.82177     -25.861868      729.9599     
    714000   307.86997      0.0073076404   4.724039       763.83389     -26.774016      737.05987    
    715000   288.00725      0.0073076404   4.2277136      714.55392     -24.781476      689.77244    
    716000   292.14632      0.0073076404   1.7852248      724.82308     -27.523975      697.29911    
    717000   312.69693      0.0073076404   3.4128467      775.8097      -23.443498      752.36621    
    718000   313.0277       0.0073076404   4.5658922      776.63036     -22.035288      754.59507    
    719000   292.69864      0.0073076404   4.5533597      726.19339     -23.260483      702.9329     
    720000   287.64617      0.0073076404   1.423762       713.65807     -24.277998      689.38007    
    721000   310.03977      0.0073076404   4.6530821      769.21721     -26.100494      743.11671    
    722000   297.287        0.0073076404   4.477509       737.57724     -26.473559      711.10368    
    723000   283.6871       0.0073076404   3.3786346      703.83552     -23.677606      680.15791    
    724000   296.65184      0.0073076404   2.5479162      736.00139     -25.594895      710.40649    
[...]
   3823000   299.59924      0.0073076404   4.199396       743.31398     -10.355051      732.95893    
   3824000   296.3936       0.0073076404   4.1763232      735.36069     -10.603709      724.75698    
   3825000   298.39507      0.0073076404   4.1318805      740.32639     -10.334422      729.99196    
   3826000   308.04351      0.0073076404   3.480683       764.26444     -14.095518      750.16893    
   3827000   301.75333      0.0073076404   3.9253157      748.65833     -12.483066      736.17526    
   3828000   303.56797      0.0073076404   4.3201128      753.1605      -10.87999       742.28051    
   3829000   291.79907      0.0073076404   4.1178218      723.96154     -11.814791      712.14675    
   3830000   300.77265      0.0073076404   4.2586887      746.22522     -12.421151      733.80407    
   3831000   283.21122      0.0073076404   3.3652881      702.65484     -12.739249      689.91559    
   3832000   297.46426      0.0073076404   4.6055211      738.01703     -10.250457      727.76658    
   3833000   299.13043      0.0073076404   5.1063209      742.15084     -8.7030522      733.44778    
   3834000   305.07019      0.0073076404   2.2913147      756.88756     -10.849332      746.03823    
   3835000   298.10182      0.0073076404   1.7904266      739.59882     -7.3822259      732.2166     
   3836000   301.30571      0.0073076404   7.6578779      747.54776     -12.121937      735.42583    
   3837000   305.95129      0.0073076404   4.8227439      759.0736      -14.522173      744.55142    
   3838000   300.8487       0.0073076404   3.4717768      746.41392     -12.579523      733.83439    
   3839000   306.26036      0.0073076404   3.6361503      759.84038     -11.361881      748.4785     
   3840000   295.43883      0.0073076404   6.3536906      732.99187     -12.71839       720.27348    
   3841000   305.43504      0.0073076404   4.968583       757.79276     -14.717335      743.07543    
   3842000   309.61948      0.0073076404   3.1772122      768.17447     -10.779293      757.39517    
   3843000   292.80172      0.0073076404  -2.389464       726.44914     -10.028818      716.42033    
   3844000   297.3338       0.0073076404   8.0465093      737.69335     -11.807677      725.88568    
   3845000   315.22545      0.0073076404   5.1185234      782.08303     -11.423452      770.65958    
   3846000   291.74293      0.0073076404  -3.3252513      723.82225     -11.191875      712.63038    
   3847000   290.57767      0.0073076404   6.8942393      720.93122     -11.368708      709.56251    
   3848000   306.27874      0.0073076404   8.1269078      759.88599     -13.708242      746.17774    
   3849000   312.48118      0.0073076404   5.3529815      775.27441     -13.401298      761.87312    
   3850000   292.46726      0.0073076404  -3.0127726      725.61933     -13.638674      711.98065    
   3851000   295.09315      0.0073076404   3.297803       732.13423     -11.904704      720.22953    
   3852000   296.15512      0.0073076404   8.5737365      734.76902     -11.602104      723.16692    
   3853000   304.92944      0.0073076404   7.900228       756.53835     -11.262725      745.27563    
   3854000   309.20459      0.0073076404   8.3897231      767.14511     -11.448956      755.69615    
   3855000   298.55045      0.0073076404  -1.0955183      740.7119      -12.95671       727.75519    
   3856000   299.33026      0.0073076404   5.1340249      742.64661     -11.232891      731.41372    
   3857000   312.79864      0.0073076404   5.281711       776.06205     -12.105524      763.95653    
   3858000   303.99408      0.0073076404   2.1044332      754.21769     -11.203181      743.01451    
   3859000   289.00046      0.0073076404   3.302965       717.01811     -10.630072      706.38803    
   3860000   297.15486      0.0073076404   2.6695018      737.2494      -12.143256      725.10615    
   3861000   305.21063      0.0073076404   4.6933783      757.23598     -11.351306      745.88467    
   3862000   306.42959      0.0073076404   4.3552945      760.26027     -12.480059      747.78021    
   3863000   290.16059      0.0073076404   2.629947       719.89643     -14.07572       705.82071    
   3864000   288.68819      0.0073076404   7.2549064      716.24336     -11.934297      704.30906    
   3865000   309.11299      0.0073076404   8.685204       766.91785     -14.371643      752.5462     
   3866000   293.66539      0.0073076404   2.7918815      728.59193     -13.080958      715.51097    
   3867000   287.20823      0.0073076404   3.9335423      712.57153     -13.618138      698.9534     
   3868000   318.21971      0.0073076404   5.9628233      789.51187     -18.878886      770.63298    
   3869000   301.67713      0.0073076404   0.36497611     748.46926     -17.641532      730.82773    
   3870000   291.93587      0.0073076404   2.2303143      724.30093     -14.14243       710.1585     
   3871000   288.64062      0.0073076404   7.8746861      716.12534     -13.51353       702.61181    
   3872000   317.6273       0.0073076404   4.0302279      788.04209     -13.072004      774.97009    
   3873000   309.98788      0.0073076404  -0.24164352     769.08847     -15.82564       753.26283    
   3874000   275.66326      0.0073076404   2.4742629      683.92814     -11.378672      672.54947    
   3875000   294.30273      0.0073076404   7.4204096      730.17319     -11.656955      718.51623    
   3876000   305.43267      0.0073076404   6.7636525      757.78689     -17.396218      740.39067    
   3877000   314.63583      0.0073076404   2.5516819      780.62018     -13.567921      767.05226    
   3878000   300.42249      0.0073076404   0.40983183     745.35648     -13.259412      732.09707    
   3879000   285.88481      0.0073076404   5.3438842      709.28808     -11.033577      698.25451    
   3880000   299.62051      0.0073076404   4.3139601      743.36674     -12.258556      731.10819    
   3881000   312.20166      0.0073076404   1.7051373      774.58093     -8.853161       765.72777    
   3882000   297.28356      0.0073076404   2.8379144      737.5687      -12.414012      725.15469    
   3883000   296.46098      0.0073076404   6.7872774      735.52785     -11.607128      723.92072    
   3884000   302.55391      0.0073076404   1.2858578      750.6446      -9.7246079      740.91999    
   3885000   303.00764      0.0073076404   3.8860472      751.7703      -11.374921      740.39538    
   3886000   299.87927      0.0073076404   4.3717846      744.00872     -12.04651       731.96221    
   3887000   290.54197      0.0073076404   4.7354255      720.84263     -14.978184      705.86445    
   3888000   312.20761      0.0073076404   2.8719294      774.59569     -13.154121      761.44157    
   3889000   303.71645      0.0073076404   2.7726895      753.52888     -11.622179      741.9067     
   3890000   298.77492      0.0073076404   5.2243365      741.26882     -12.684493      728.58432    
   3891000   301.53449      0.0073076404   5.3352952      748.11537     -11.441704      736.67367    
   3892000   304.01656      0.0073076404   4.3808539      754.27345     -12.07087       742.20258    
   3893000   316.24475      0.0073076404   2.053649       784.61194     -8.6876929      775.92425    
   3894000   292.77073      0.0073076404   3.2197467      726.37225     -9.964028       716.40822    
   3895000   286.56929      0.0073076404   9.0733047      710.98631     -11.588126      699.39818    
   3896000   312.64789      0.0073076404   4.9759734      775.68803     -6.9368706      768.75116    
   3897000   315.1964       0.0073076404   3.4295107      782.01095     -11.571166      770.43978    
   3898000   298.37667      0.0073076404   3.6079393      740.28073     -13.042715      727.23802    
   3899000   298.82226      0.0073076404   5.9117208      741.38627     -8.2591134      733.12715    
   3900000   311.16263      0.0073076404   1.0690144      772.00306     -11.600466      760.40259    
   3901000   300.36875      0.0073076404   3.9847246      745.22315     -14.098577      731.12457    
   3902000   295.34836      0.0073076404   4.8417838      732.76741     -9.8030532      722.96436    
   3903000   314.50053      0.0073076404   0.83462419     780.28448     -10.392111      769.89237    
   3904000   288.23353      0.0073076404   3.4068882      715.11533     -7.3498996      707.76543    
   3905000   302.05672      0.0073076404   7.7062586      749.41104     -7.7101204      741.70092    
   3906000   299.99172      0.0073076404   4.0410665      744.28772     -8.5151361      735.77258    
   3907000   295.28443      0.0073076404   3.4751072      732.60882     -9.7515361      722.85728    
   3908000   302.13913      0.0073076404   3.2091925      749.61551     -6.5939207      743.02158    
   3909000   302.82139      0.0073076404   6.0288728      751.30822     -10.55569       740.75253    
   3910000   304.84182      0.0073076404   3.4219878      756.32096     -11.195491      745.12547    
   3911000   281.67171      0.0073076404  -1.0806585      698.83526     -11.69756       687.13771    
   3912000   299.19455      0.0073076404   3.4616954      742.30992     -9.5789219      732.73099    
   3913000   314.65655      0.0073076404   5.203151       780.67157     -10.333479      770.33809    
   3914000   298.56098      0.0073076404   3.257903       740.73803     -9.248974       731.48905    
   3915000   292.98801      0.0073076404   2.0395998      726.91132     -10.60859       716.30273    
   3916000   281.04375      0.0073076404   2.9400742      697.27728     -11.219739      686.05754    
   3917000   315.04486      0.0073076404   5.6448706      781.63498     -8.5614458      773.07354    
   3918000   301.98628      0.0073076404   4.2800294      749.23629     -12.629583      736.6067     
   3919000   306.8704       0.0073076404   3.6543081      761.35393     -14.611285      746.74265    
   3920000   289.93016      0.0073076404   3.9905296      719.32472     -13.040401      706.28431    
   3921000   298.18233      0.0073076404   4.0462957      739.79858     -13.952937      725.84565    
   3922000   304.44754      0.0073076404   4.5204677      755.34274     -16.453155      738.88959    
   3923000   303.81853      0.0073076404   3.6738385      753.78215     -12.060737      741.72141    
   3924000   297.95808      0.0073076404   3.4140726      739.24221     -14.03945       725.20276    
   3925000   316.32173      0.0073076404   3.3066818      784.80292     -12.101066      772.70186    
   3926000   300.94667      0.0073076404   5.562926       746.657       -13.259435      733.39756    
   3927000   305.65143      0.0073076404   4.2895213      758.32963     -12.646068      745.68356    
   3928000   292.28855      0.0073076404   3.4667016      725.17594     -11.42443       713.75151    
   3929000   295.34573      0.0073076404   4.5275349      732.76089     -12.93937       719.82152    
   3930000   301.389        0.0073076404   4.0690717      747.75441     -14.924018      732.8304     
   3931000   290.63587      0.0073076404   4.1173593      721.07561     -14.473976      706.60163    
   3932000   313.2262       0.0073076404   4.8845956      777.12282     -15.48917       761.63365    
   3933000   292.27825      0.0073076404   3.5872071      725.15041     -12.507472      712.64293    
   3934000   289.71684      0.0073076404   3.6350932      718.79547     -10.887065      707.9084     
   3935000   295.21842      0.0073076404   4.0584305      732.44504     -9.7720369      722.67301    
   3936000   326.6936       0.0073076404   3.984134       810.53583     -9.7995294      800.7363     
   3937000   304.73397      0.0073076404   5.1183747      756.05339     -8.4176223      747.63577    
   3938000   295.58699      0.0073076404   5.7413911      733.35947     -9.7174277      723.64204    
   3939000   296.04901      0.0073076404   2.6617282      734.50575     -10.120432      724.38532    
   3940000   307.94312      0.0073076404   3.1840886      764.01536     -7.8433638      756.172      
   3941000   304.01921      0.0073076404   4.6177669      754.28004     -8.6275551      745.65248    
   3942000   298.01473      0.0073076404   3.6336756      739.38277     -9.6688603      729.71391    
   3943000   295.84172      0.0073076404   5.964739       733.99146     -8.4564529      725.53501    
   3944000   305.71554      0.0073076404   3.4683705      758.48868     -9.5552571      748.93343    
   3945000   309.53897      0.0073076404   4.0786614      767.97471     -10.45823       757.51648    
   3946000   298.25112      0.0073076404   4.0422568      739.96926     -8.9200097      731.04925    
   3947000   298.87763      0.0073076404   3.8271079      741.52365     -12.025513      729.49814    
   3948000   306.26566      0.0073076404   3.8980487      759.85354     -13.289569      746.56397    
   3949000   297.81393      0.0073076404   4.8230208      738.88458     -9.8880685      728.99651    
   3950000   283.35235      0.0073076404   3.8266257      703.00499     -9.3114595      693.69353    
   3951000   297.44332      0.0073076404   1.9225809      737.96507     -10.61273       727.35234    
   3952000   300.03328      0.0073076404   4.7313823      744.39084     -10.157138      734.23371    
   3953000   297.05211      0.0073076404   5.0763775      736.99446     -9.8704402      727.12402    
   3954000   295.07451      0.0073076404   3.1650118      732.088       -9.6527187      722.43529    
   3955000   302.34767      0.0073076404   3.0997191      750.1329      -11.783261      738.34964    
   3956000   310.46722      0.0073076404   5.4170242      770.27772     -10.330614      759.94711    
   3957000   311.50812      0.0073076404   4.6955965      772.86022     -7.1562221      765.704      
   3958000   285.05315      0.0073076404   3.071058       707.22471     -6.2516055      700.97311    
   3959000   306.97714      0.0073076404   2.6717332      761.61875     -7.4375138      754.18123    
   3960000   307.80901      0.0073076404   5.0978991      763.68264     -8.3738783      755.30876    
   3961000   296.87588      0.0073076404   3.5207508      736.55725     -12.750816      723.80643    
   3962000   294.60216      0.0073076404   4.2088568      730.91607     -12.366721      718.54935    
   3963000   298.10861      0.0073076404   4.1847588      739.61567     -10.471016      729.14465    
   3964000   306.06775      0.0073076404   4.5672777      759.36252     -9.0650196      750.2975     
   3965000   292.41912      0.0073076404   3.9063652      725.4999      -12.981287      712.51861    
   3966000   297.28088      0.0073076404   1.7466662      737.56205     -12.226202      725.33584    
   3967000   309.57584      0.0073076404   5.9327765      768.0662      -10.431848      757.63435    
   3968000   307.89859      0.0073076404   5.6770939      763.9049      -12.26909       751.63581    
   3969000   295.5058       0.0073076404   3.2953674      733.15803     -14.620079      718.53795    
   3970000   301.11858      0.0073076404  -1.6720124      747.0835      -9.6597582      737.42375    
   3971000   307.33458      0.0073076404   4.0184546      762.50556     -10.75083       751.75473    
   3972000   291.44324      0.0073076404   11.187829      723.0787      -15.262777      707.81593    
   3973000   297.82908      0.0073076404   2.1953641      738.92215     -12.960851      725.9613     
   3974000   309.86703      0.0073076404   1.2060193      768.78865     -13.212825      755.57583    
   3975000   300.53514      0.0073076404   4.0347238      745.63595     -14.795368      730.84059    
   3976000   294.69195      0.0073076404   8.5188064      731.13885     -13.36454       717.77431    
   3977000   295.39381      0.0073076404   2.7586123      732.88017     -11.28576       721.59441    
   3978000   302.27578      0.0073076404   0.99898229     749.95453     -11.041526      738.91301    
   3979000   295.64366      0.0073076404   0.90199219     733.50006     -12.581756      720.91831    
   3980000   297.26817      0.0073076404   0.6930386      737.53053     -10.236947      727.29358    
   3981000   301.92685      0.0073076404   4.5208528      749.08883     -8.7921647      740.29666    
   3982000   297.91515      0.0073076404   9.7474958      739.13569     -10.109559      729.02613    
   3983000   305.76156      0.0073076404   1.6067988      758.60285     -11.992393      746.61046    
   3984000   298.26404      0.0073076404   4.9596227      740.0013      -9.2323843      730.76892    
   3985000   309.61555      0.0073076404   3.7492337      768.16472     -8.8147568      759.34997    
   3986000   300.68679      0.0073076404   11.296922      746.0122      -9.735122       736.27708    
   3987000   297.24442      0.0073076404   1.704243       737.4716      -12.013255      725.45835    
   3988000   304.95807      0.0073076404   1.754605       756.60939     -10.561391      746.048      
   3989000   310.01033      0.0073076404   8.7141622      769.14417     -14.80853       754.33564    
   3990000   297.78291      0.0073076404   4.2546554      738.80762     -10.608765      728.19885    
   3991000   295.48149      0.0073076404  -0.58538684     733.09772     -14.409375      718.68834    
   3992000   300.67979      0.0073076404   3.7376118      745.99486     -13.354855      732.64       
   3993000   301.7498       0.0073076404   8.4306889      748.64958     -14.07522       734.57436    
   3994000   290.05013      0.0073076404   4.4979286      719.62237     -16.571606      703.05076    
   3995000   307.67173      0.0073076404  -0.81499157     763.34203     -16.17579       747.16624    
   3996000   308.4565       0.0073076404   4.8899634      765.28907     -16.982243      748.30683    
   3997000   287.88554      0.0073076404   9.9597491      714.25195     -8.6564663      705.59549    
   3998000   299.6633       0.0073076404   2.8145827      743.4729      -11.906496      731.5664     
   3999000   298.02325      0.0073076404   2.7430083      739.40389     -13.165889      726.238      
   4000000   296.25454      0.0073076404   10.74019       735.01568     -12.011187      723.00449    
Loop time of 9791.68 on 1 procs for 4000000 steps with 1500 atoms

Performance: 8.824 ns/day, 2.720 hours/ns, 408.510 timesteps/s, 612.765 katom-step/s
100.0% CPU use with 1 MPI tasks x 1 OpenMP threads

MPI task timing breakdown:
Section |  min time  |  avg time  |  max time  |%varavg| %total
---------------------------------------------------------------
Pair    | 879.69     | 879.69     | 879.69     |   0.0 |  8.98
Bond    | 86.303     | 86.303     | 86.303     |   0.0 |  0.88
Kspace  | 8338.9     | 8338.9     | 8338.9     |   0.0 | 85.16
Neigh   | 0.030485   | 0.030485   | 0.030485   |   0.0 |  0.00
Comm    | 14.099     | 14.099     | 14.099     |   0.0 |  0.14
Output  | 0.076472   | 0.076472   | 0.076472   |   0.0 |  0.00
Modify  | 461.2      | 461.2      | 461.2      |   0.0 |  4.71
Other   |            | 11.41      |            |       |  0.12

Nlocal:           1500 ave        1500 max        1500 min
Histogram: 1 0 0 0 0 0 0 0 0 0
Nghost:            878 ave         878 max         878 min
Histogram: 1 0 0 0 0 0 0 0 0 0
Neighs:              0 ave           0 max           0 min
Histogram: 1 0 0 0 0 0 0 0 0 0

Total # of neighbors = 0
Ave neighs/atom = 0
Ave special neighs/atom = 2
Neighbor list builds = 19779
Dangerous builds = 0
write_data	last_conf.data pair ij
System init for write_data ...
PPPM initialization ...
  using 12-bit tables for long-range coulomb (src/kspace.cpp:342)
  G vector (1/distance) = 0.15557183
  grid = 32 32 32
  stencil order = 5
  estimated absolute RMS force accuracy = 0.035261612
  estimated relative force accuracy = 0.0001061893
  using double precision FFTW3
  3d grid and FFT values/proc = 50653 32768
Generated 1 of 1 mixed pair_coeff terms from arithmetic mixing rule
Total wall time: 2:43:11
