LAMMPS data file via write_data, version 29 Aug 2024, timestep = 0, units = real

1500 atoms
2 atom types
1000 bonds
1 bond types
500 angles
1 angle types

0 189 xlo xhi
0 189 ylo yhi
0 189 zlo zhi

Masses

1 12.0107
2 15.9994

PairIJ Coeffs # lj/cut/coul/long/gpu

1 1 0.053649 2.8 12
1 2 0.0917684 2.925 12
2 2 0.156973 3.05 12

Bond Coeffs # harmonic

1 0 1.16

Angle Coeffs # harmonic

1 0 180

Atoms # full

1 1 1 0.7 13.924890894873483 53.64127013862192 18.827219818638273 0 0 0
2 1 2 -0.35 12.917230150631267 53.87895616425548 18.304032301841715 0 0 0
3 1 2 -0.35 14.9325516391157 53.40358411298836 19.35040733543483 0 0 0
4 2 1 0.7 43.0834918534772 45.247581391244935 129.10044265356868 0 0 0
5 2 2 -0.35 43.43081170960678 45.74814848205715 128.11332487683993 0 0 0
6 2 2 -0.35 42.73617199734762 44.747014300432724 130.08756043029743 0 0 0
7 3 1 0.7 71.13967852859743 30.57703013698432 17.14551229548897 0 0 0
8 3 2 -0.35 70.67706967364445 29.51326692214781 17.144579514812936 0 0 0
9 3 2 -0.35 71.6022873835504 31.64079335182083 17.146445076165005 0 0 0
10 4 1 0.7 128.62515028315835 20.900809042575215 117.89757856163084 0 0 0
11 4 2 -0.35 127.54009096539934 21.099852980726375 118.2562257247726 0 0 0
12 4 2 -0.35 129.71020960091735 20.701765104424055 117.53893139848907 0 0 0
13 5 1 0.7 28.602885329445307 101.6937319872406 39.553509552755166 0 0 0
14 5 2 -0.35 28.430226554400885 101.97871043676084 40.664624412123544 0 0 0
15 5 2 -0.35 28.77554410448973 101.40875353772036 38.44239469338679 0 0 0
16 6 1 0.7 62.83505315605321 125.73839378624149 76.1843653606178 0 0 0
17 6 2 -0.35 61.7475789716638 125.91195343143174 75.81984245619614 0 0 0
18 6 2 -0.35 63.92252734044263 125.56483414105124 76.54888826503947 0 0 0
19 7 1 0.7 144.62861590349516 44.14749004326178 161.8651571007749 0 0 0
20 7 2 -0.35 143.60724330393 44.41016615950911 161.38204296228304 0 0 0
21 7 2 -0.35 145.6499885030603 43.884813927014456 162.34827123926675 0 0 0
22 8 1 0.7 1.6953927235190722 144.4655041850477 137.72883809671217 0 0 0
23 8 2 -0.35 1.2204993237893689 145.48293646687108 138.02022754538322 0 0 0
24 8 2 -0.35 2.1702861232487756 143.44807190322433 137.4374486480411 0 0 0
25 9 1 0.7 125.58189144152304 91.84945767784932 150.83519161345214 0 0 0
26 9 2 -0.35 125.24113443847426 92.56147625300304 149.98518325260545 0 0 0
27 9 2 -0.35 125.92264844457182 91.1374391026956 151.68519997429883 0 0 0
28 10 1 0.7 30.0654472899928 112.97260290895245 36.53709076369977 0 0 0
29 10 2 -0.35 30.072026599967145 112.0130609347352 37.18888514262269 0 0 0
30 10 2 -0.35 30.058867980018455 113.93214488316971 35.88529638477686 0 0 0
31 11 1 0.7 17.88446550205558 74.21169304811008 64.92505958626282 0 0 0
32 11 2 -0.35 17.490054530503034 74.18251496926241 66.01555884129867 0 0 0
33 11 2 -0.35 18.278876473608126 74.24087112695774 63.834560331226974 0 0 0
34 12 1 0.7 98.47646631927996 20.96942813832752 137.17872087060414 0 0 0
35 12 2 -0.35 97.5571275406532 21.652836429609106 137.3613935766131 0 0 0
36 12 2 -0.35 99.39580509790673 20.28601984704593 136.99604816459518 0 0 0
37 13 1 0.7 140.7616722438306 68.42540206081486 149.73243611526323 0 0 0
38 13 2 -0.35 140.84664242065273 67.27455950280638 149.61436208879113 0 0 0
39 13 2 -0.35 140.67670206700845 69.57624461882334 149.85051014173533 0 0 0
40 14 1 0.7 18.05378922915728 85.03557444644885 163.89972146595815 0 0 0
41 14 2 -0.35 17.352769823648224 84.69474250070435 164.75879385979917 0 0 0
42 14 2 -0.35 18.75480863466634 85.37640639219335 163.04064907211713 0 0 0
43 15 1 0.7 176.6186783586716 185.12717419309877 114.41666341080175 0 0 0
44 15 2 -0.35 175.83204128145778 185.13328916125897 113.56415844546903 0 0 0
45 15 2 -0.35 177.4053154358854 185.12105922493856 115.26916837613446 0 0 0
46 16 1 0.7 114.8619453450022 38.71541345199356 151.95388765584394 0 0 0
47 16 2 -0.35 113.7124180413813 38.56523812859802 151.9134605551181 0 0 0
48 16 2 -0.35 116.0114726486231 38.86558877538911 151.9943147565698 0 0 0
49 17 1 0.7 120.98983176890287 25.102539950563823 50.3889491261863 0 0 0
50 17 2 -0.35 120.01810529892558 25.674228720407765 50.66193194245828 0 0 0
51 17 2 -0.35 121.96155823888017 24.530851180719882 50.11596630991431 0 0 0
52 18 1 0.7 167.06796381299753 127.26780504978626 76.99947175756073 0 0 0
53 18 2 -0.35 166.25232527610908 127.8895905032312 76.45751546132762 0 0 0
54 18 2 -0.35 167.883602349886 126.64601959634132 77.54142805379384 0 0 0
55 19 1 0.7 47.12182932306166 66.58543269736013 32.367344531867346 0 0 0
56 19 2 -0.35 46.942088684553674 66.89705129911474 31.264535776955938 0 0 0
57 19 2 -0.35 47.30156996156965 66.27381409560553 33.47015328677875 0 0 0
58 20 1 0.7 55.959547094516246 48.108017534533516 9.45070290493346 0 0 0
59 20 2 -0.35 56.88000622094712 48.043325658103974 10.15367513603091 0 0 0
60 20 2 -0.35 55.03908796808537 48.17270941096306 8.747730673836008 0 0 0
61 21 1 0.7 77.9637232166546 188.29610231392834 76.59159019384141 0 0 0
62 21 2 -0.35 78.77335988778366 187.56763182889458 76.99086355032507 0 0 0
63 21 2 -0.35 77.15408654552554 0.02457279896211162 76.19231683735775 0 1 0
64 22 1 0.7 184.8563878926711 99.31131212334675 66.22285708888566 0 0 0
65 22 2 -0.35 183.9310828801413 98.6269387214133 66.07779268762461 0 0 0
66 22 2 -0.35 185.7816929052009 99.99568552528021 66.36792149014671 0 0 0
67 23 1 0.7 175.55909290144177 142.6743945319552 85.5488985709608 0 0 0
68 23 2 -0.35 176.32173164668825 143.27410607234037 84.91303049299357 0 0 0
69 23 2 -0.35 174.7964541561953 142.07468299157 86.18476664892803 0 0 0
70 24 1 0.7 97.33828213826672 169.50789784896557 122.23914756404197 0 0 0
71 24 2 -0.35 96.51884442310678 170.24777466328888 122.59510280083482 0 0 0
72 24 2 -0.35 98.15771985342666 168.76802103464226 121.88319232724912 0 0 0
73 25 1 0.7 43.35310885326616 40.700496844342204 62.25046285951997 0 0 0
74 25 2 -0.35 42.309288186337966 40.21713058571008 62.10081168074222 0 0 0
75 25 2 -0.35 44.39692952019435 41.18386310297433 62.40011403829772 0 0 0
76 26 1 0.7 128.52927995218397 110.60815635584676 176.28387271626102 0 0 0
77 26 2 -0.35 127.44821380876658 110.90506468086873 175.9859777010471 0 0 0
78 26 2 -0.35 129.61034609560136 110.31124803082479 176.58176773147494 0 0 0
79 27 1 0.7 39.048742198873654 84.21013646955143 87.76364375081083 0 0 0
80 27 2 -0.35 38.20205757780957 84.13589989707842 86.97420465641467 0 0 0
81 27 2 -0.35 39.89542681993774 84.28437304202444 88.55308284520699 0 0 0
82 28 1 0.7 87.56051987761656 75.65758310149312 173.99918679473885 0 0 0
83 28 2 -0.35 86.73022314831277 76.21213541390945 174.58967733158187 0 0 0
84 28 2 -0.35 88.39081660692034 75.10303078907678 173.40869625789583 0 0 0
85 29 1 0.7 7.332459175648382 8.641365122348706 83.42361131469887 0 0 0
86 29 2 -0.35 6.173086500806837 8.666158946525393 83.4525986759699 0 0 0
87 29 2 -0.35 8.491831850489927 8.616571298172019 83.39462395342785 0 0 0
88 30 1 0.7 98.63536614395461 45.59878144534248 172.71975187106045 0 0 0
89 30 2 -0.35 97.7155406546183 45.64781575737095 172.0146868347616 0 0 0
90 30 2 -0.35 99.55519163329093 45.549747133314014 173.42481690735931 0 0 0
91 31 1 0.7 49.86969691322636 133.99602059554124 136.11814926151098 0 0 0
92 31 2 -0.35 50.181877054860315 133.0104785831633 135.591983412175 0 0 0
93 31 2 -0.35 49.55751677159241 134.9815626079192 136.64431511084695 0 0 0
94 32 1 0.7 81.73463821538475 62.06448597138026 26.81572098788606 0 0 0
95 32 2 -0.35 80.94326694092065 61.21703122320396 26.781780514310714 0 0 0
96 32 2 -0.35 82.52600948984885 62.911940719556554 26.849661461461405 0 0 0
97 33 1 0.7 115.82264340101865 120.16764092034084 3.540948168626497 0 0 0
98 33 2 -0.35 114.68151188892698 120.00427515871512 3.6702946028247654 0 0 0
99 33 2 -0.35 116.96377491311033 120.33100668196657 3.4116017344282286 0 0 0
100 34 1 0.7 166.71587010552915 68.62886362831522 167.31100109373733 0 0 0
101 34 2 -0.35 165.71725248225115 68.57645600946138 166.72310970583928 0 0 0
102 34 2 -0.35 167.71448772880714 68.68127124716905 167.8988924816354 0 0 0
103 35 1 0.7 53.99538244306826 111.39272064827044 132.45593548121673 0 0 0
104 35 2 -0.35 52.8491708823424 111.57092273893474 132.44937248332977 0 0 0
105 35 2 -0.35 55.14159400379412 111.21451855760614 132.4624984791037 0 0 0
106 36 1 0.7 144.90763280955497 8.584630190667058 74.87961454125103 0 0 0
107 36 2 -0.35 143.9270000122985 8.029781996765816 75.15548189827147 0 0 0
108 36 2 -0.35 145.88826560681144 9.1394783845683 74.60374718423058 0 0 0
109 37 1 0.7 139.68159480610936 59.56390628012078 146.57284999013547 0 0 0
110 37 2 -0.35 138.5223881428054 59.561327275846395 146.53003339885743 0 0 0
111 37 2 -0.35 140.84080146941332 59.56648528439517 146.6156665814135 0 0 0
112 38 1 0.7 23.889784206584924 79.60316007286457 148.31134463488652 0 0 0
113 38 2 -0.35 23.932772315562627 80.21244225757056 147.32517667663274 0 0 0
114 38 2 -0.35 23.84679609760722 78.99387788815858 149.2975125931403 0 0 0
115 39 1 0.7 136.76927853784025 63.26438548102247 159.52677954478506 0 0 0
116 39 2 -0.35 135.98069167343684 62.54981448912859 159.06513135099004 0 0 0
117 39 2 -0.35 137.55786540224366 63.97895647291635 159.98842773858007 0 0 0
118 40 1 0.7 12.583809202343138 5.081263781097375 161.8003689035775 0 0 0
119 40 2 -0.35 12.332130942851773 5.121844672009225 162.93200985590832 0 0 0
120 40 2 -0.35 12.835487461834504 5.040682890185525 160.66872795124667 0 0 0
121 41 1 0.7 46.80016242703431 141.32991116555868 168.81695954493105 0 0 0
122 41 2 -0.35 46.279129996294245 142.08263243956176 168.10454401325006 0 0 0
123 41 2 -0.35 47.32119485777437 140.5771898915556 169.52937507661204 0 0 0
124 42 1 0.7 38.63907165622295 2.877326139191783 164.22042139629852 0 0 0
125 42 2 -0.35 37.49645132608124 2.7108456561163705 164.33134042037383 0 0 0
126 42 2 -0.35 39.78169198636466 3.0438066222671956 164.1095023722232 0 0 0
127 43 1 0.7 85.62240758939758 9.804355005176904 162.79457200821236 0 0 0
128 43 2 -0.35 86.72746716140509 9.862121312344897 162.446568565599 0 0 0
129 43 2 -0.35 84.51734801739008 9.74658869800891 163.14257545082572 0 0 0
130 44 1 0.7 124.37174202519084 164.86821738251868 11.129547991384541 0 0 0
131 44 2 -0.35 123.75096316953643 165.75053918923427 10.703236084717004 0 0 0
132 44 2 -0.35 124.99252088084525 163.98589557580308 11.555859898052079 0 0 0
133 45 1 0.7 133.31309119999085 187.12379824655306 29.67712981751055 0 0 0
134 45 2 -0.35 132.19112661059003 186.89180492916068 29.85871880620731 0 0 0
135 45 2 -0.35 134.43505578939167 187.35579156394544 29.49554082881379 0 0 0
136 46 1 0.7 12.520842899810916 80.80661712205347 151.8139703524364 0 0 0
137 46 2 -0.35 12.21309402736267 80.46388797772367 152.87859581011332 0 0 0
138 46 2 -0.35 12.828591772259161 81.14934626638326 150.74934489475947 0 0 0
139 47 1 0.7 37.39971339860917 151.98309042443665 44.800763506815194 0 0 0
140 47 2 -0.35 36.6761034608546 152.1313501845005 45.695195003090134 0 0 0
141 47 2 -0.35 38.12332333636375 151.83483066437282 43.906332010540254 0 0 0
142 48 1 0.7 179.4322590429486 33.97773483720503 94.78940890486791 0 0 0
143 48 2 -0.35 178.42221069565082 33.41275730265644 94.86816626373947 0 0 0
144 48 2 -0.35 180.44230739024638 34.542712371753616 94.71065154599636 0 0 0
145 49 1 0.7 44.595464114842684 130.965378161038 41.11075256537215 0 0 0
146 49 2 -0.35 44.77563588605857 130.07464374449415 40.38982931561443 0 0 0
147 49 2 -0.35 44.415292343626795 131.85611257758183 41.83167581512988 0 0 0
148 50 1 0.7 153.41836620979865 164.4808880861294 116.28606357671602 0 0 0
149 50 2 -0.35 152.74857409440762 163.68826807087822 116.80445728190855 0 0 0
150 50 2 -0.35 154.08815832518968 165.27350810138057 115.76766987152348 0 0 0
151 51 1 0.7 159.87053386628187 120.06269059938504 129.64090386435433 0 0 0
152 51 2 -0.35 159.0466240996208 120.61762922543757 130.23991623293733 0 0 0
153 51 2 -0.35 160.69444363294295 119.5077519733325 129.04189149577132 0 0 0
154 52 1 0.7 82.6712482029904 116.66854765949238 162.2805130883495 0 0 0
155 52 2 -0.35 82.62010174368625 115.50970750938849 162.28908899692328 0 0 0
156 52 2 -0.35 82.72239466229455 117.82738780959626 162.2719371797757 0 0 0
157 53 1 0.7 178.58347588990978 132.47928171347792 159.28775842361512 0 0 0
158 53 2 -0.35 177.54380452848997 132.40143702100173 158.7792078714605 0 0 0
159 53 2 -0.35 179.62314725132958 132.5571264059541 159.79630897576973 0 0 0
160 54 1 0.7 153.35582569956586 58.36253260325759 178.08546295020983 0 0 0
161 54 2 -0.35 152.63561542437105 59.23200099883215 178.3517745507849 0 0 0
162 54 2 -0.35 154.07603597476066 57.493064207683034 177.81915134963475 0 0 0
163 55 1 0.7 78.37580417672908 121.14079828566909 105.3967872403547 0 0 0
164 55 2 -0.35 77.55256041518544 120.97387650518387 106.19679150801777 0 0 0
165 55 2 -0.35 79.19904793827271 121.30772006615432 104.59678297269163 0 0 0
166 56 1 0.7 95.80314864162503 72.51921979175845 158.52704008413806 0 0 0
167 56 2 -0.35 94.66409265605989 72.46434141563728 158.3145787333409 0 0 0
168 56 2 -0.35 96.94220462719016 72.57409816787961 158.73950143493522 0 0 0
169 57 1 0.7 30.962694108468803 72.99988103518257 110.00055831344825 0 0 0
170 57 2 -0.35 29.854352033484016 73.06763652570804 109.66501839283958 0 0 0
171 57 2 -0.35 32.071036183453586 72.9321255446571 110.33609823405692 0 0 0
172 58 1 0.7 170.38357412460428 97.73031222388627 143.35754685679336 0 0 0
173 58 2 -0.35 170.7566219165947 96.72165756802887 143.7923469604137 0 0 0
174 58 2 -0.35 170.01052633261386 98.73896687974367 142.92274675317302 0 0 0
175 59 1 0.7 38.29002212606837 184.40187283111823 20.27667260415697 0 0 0
176 59 2 -0.35 38.03398506884751 183.34510839100534 19.87257615101422 0 0 0
177 59 2 -0.35 38.54605918328924 185.4586372712311 20.680769057299724 0 0 0
178 60 1 0.7 23.03645806621595 101.75071889150456 52.33240951706302 0 0 0
179 60 2 -0.35 22.016650338455964 101.48545119637954 51.847409261058885 0 0 0
180 60 2 -0.35 24.056265793975935 102.01598658662958 52.817409773067155 0 0 0
181 61 1 0.7 133.8067532781543 168.1023459393076 124.12820194341626 0 0 0
182 61 2 -0.35 132.73637787185464 168.3970348003979 124.46443841487365 0 0 0
183 61 2 -0.35 134.87712868445396 167.80765707821732 123.79196547195886 0 0 0
184 62 1 0.7 40.69006299678705 75.88878699992262 90.84310769934352 0 0 0
185 62 2 -0.35 41.2541157922898 76.69989811735162 91.45100834835502 0 0 0
186 62 2 -0.35 40.126010201284295 75.07767588249361 90.23520705033202 0 0 0
187 63 1 0.7 58.111102866526274 110.30587770710972 9.886623393225774 0 0 0
188 63 2 -0.35 57.04723406926115 110.73106711735251 9.704972223058727 0 0 0
189 63 2 -0.35 59.174971663791396 109.88068829686692 10.068274563392821 0 0 0
190 64 1 0.7 33.47936994558171 34.77067539178332 2.7413097022759305 0 0 0
191 64 2 -0.35 33.51961727525377 35.67781480480182 2.0194522109365924 0 0 0
192 64 2 -0.35 33.439122615909646 33.86353597876482 3.4631671936152686 0 0 0
193 65 1 0.7 146.1921661515684 51.73650940961042 135.51364732231647 0 0 0
194 65 2 -0.35 146.46217440385033 51.12270308693468 136.46018698970656 0 0 0
195 65 2 -0.35 145.92215789928645 52.35031573228616 134.5671076549264 0 0 0
196 66 1 0.7 127.87054617324404 1.2695337125423987 169.05310670009493 0 0 0
197 66 2 -0.35 127.1277387706728 1.4963612720738249 168.19148821090008 0 0 0
198 66 2 -0.35 128.61335357581527 1.0427061530109725 169.91472518928978 0 0 0
199 67 1 0.7 38.564308495523555 69.33288426433359 92.78583065456982 0 0 0
200 67 2 -0.35 38.168082994212966 68.34153942407416 92.33213388380526 0 0 0
201 67 2 -0.35 38.960533996834144 70.32422910459302 93.23952742533439 0 0 0
202 68 1 0.7 12.455811355009587 121.82144364613175 16.003360536416693 0 0 0
203 68 2 -0.35 11.80111339635777 122.48714667598327 15.315021914092135 0 0 0
204 68 2 -0.35 13.110509313661403 121.15574061628024 16.69169915874125 0 0 0
205 69 1 0.7 21.48053555538903 33.361079423390834 125.66186892970552 0 0 0
206 69 2 -0.35 20.378166786290922 33.41728957444759 126.01855298574854 0 0 0
207 69 2 -0.35 22.582904324487135 33.30486927233408 125.3051848736625 0 0 0
208 70 1 0.7 113.03110156070026 74.72393068937768 169.10309637063327 0 0 0
209 70 2 -0.35 111.91733119185514 74.80204699507738 168.78843240976957 0 0 0
210 70 2 -0.35 114.14487192954539 74.64581438367799 169.41776033149696 0 0 0
211 71 1 0.7 122.74070123338173 156.9656294467699 59.33411186157451 0 0 0
212 71 2 -0.35 123.78402240396419 156.52655345429025 59.587672915055656 0 0 0
213 71 2 -0.35 121.69738006279927 157.40470543924954 59.08055080809337 0 0 0
214 72 1 0.7 64.4180574828843 82.29211483629985 170.57405369150175 0 0 0
215 72 2 -0.35 63.260813013976566 82.31039766242324 170.65184172047415 0 0 0
216 72 2 -0.35 65.57530195179203 82.27383201017645 170.49626566252934 0 0 0
217 73 1 0.7 86.12039306998271 63.44632719943595 4.421240919931439 0 0 0
218 73 2 -0.35 86.06850592945023 64.5403019719851 4.803506431942912 0 0 0
219 73 2 -0.35 86.1722802105152 62.352352426886796 4.038975407919965 0 0 0
220 74 1 0.7 30.79614128768264 108.74662208219367 74.47733542904135 0 0 0
221 74 2 -0.35 29.646790542487306 108.84223729525623 74.35303500446472 0 0 0
222 74 2 -0.35 31.945492032877976 108.65100686913111 74.60163585361798 0 0 0
223 75 1 0.7 182.5765558977502 149.1749734879355 98.77941173165078 0 0 0
224 75 2 -0.35 182.03926602888527 148.48264958113063 98.01940699161193 0 0 0
225 75 2 -0.35 183.11384576661516 149.86729739474035 99.53941647168963 0 0 0
226 76 1 0.7 9.572973854640953 53.97157495048437 89.26019279065551 0 0 0
227 76 2 -0.35 10.530388086566688 54.3002443200773 89.82670354430229 0 0 0
228 76 2 -0.35 8.615559622715217 53.64290558089144 88.69368203700873 0 0 0
229 77 1 0.7 103.06023254713985 137.3284197795803 10.751235405798646 0 0 0
230 77 2 -0.35 102.24070202849724 137.93392700133396 10.19686122402469 0 0 0
231 77 2 -0.35 103.87976306578246 136.72291255782662 11.3056095875726 0 0 0
232 78 1 0.7 12.013465257833463 58.310588407009185 61.05935660333343 0 0 0
233 78 2 -0.35 12.149417846379636 57.803329991480176 60.025042437548876 0 0 0
234 78 2 -0.35 11.87751266928729 58.81784682253819 62.09367076911798 0 0 0
235 79 1 0.7 143.60643222490626 63.30640399935953 109.73201723570563 0 0 0
236 79 2 -0.35 142.69349513581807 62.682586924939436 109.38130634475822 0 0 0
237 79 2 -0.35 144.51936931399445 63.93022107377963 110.08272812665304 0 0 0
238 80 1 0.7 4.013680504641347 173.9282415071168 137.95501011235407 0 0 0
239 80 2 -0.35 4.94878985357237 173.3351270761666 138.30053258244885 0 0 0
240 80 2 -0.35 3.078571155710325 174.52135593806702 137.6094876422593 0 0 0
241 81 1 0.7 146.85495833487016 40.28473416263458 67.52707139939399 0 0 0
242 81 2 -0.35 146.1109546075493 41.12052148235627 67.832878544381 0 0 0
243 81 2 -0.35 147.59896206219102 39.44894684291289 67.22126425440698 0 0 0
244 82 1 0.7 171.48900961479592 154.7845958749692 68.70287060723774 0 0 0
245 82 2 -0.35 171.7644084625977 153.74489817463328 69.13736360665854 0 0 0
246 82 2 -0.35 171.21361076699415 155.82429357530512 68.26837760781694 0 0 0
247 83 1 0.7 88.14629584464538 92.7942609548542 154.1438682345412 0 0 0
248 83 2 -0.35 87.26301818292814 92.84288487262987 153.393497468232 0 0 0
249 83 2 -0.35 89.02957350636262 92.74563703707852 154.8942390008504 0 0 0
250 84 1 0.7 72.99341793404585 1.3752175086993805 55.280668710489145 0 0 0
251 84 2 -0.35 74.14452434427803 1.2318822286519757 55.27766374524464 0 0 0
252 84 2 -0.35 71.84231152381368 1.5185527887467853 55.28367367573365 0 0 0
253 85 1 0.7 167.19901719093278 61.88192800706342 171.56401471493953 0 0 0
254 85 2 -0.35 168.10499480585221 61.201828201827965 171.31447751093262 0 0 0
255 85 2 -0.35 166.29303957601334 62.56202781229888 171.81355191894644 0 0 0
256 86 1 0.7 92.39531398862381 64.04220680056243 2.369697052691922 0 0 0
257 86 2 -0.35 91.75996333297246 64.35734706019277 3.2876383150412734 0 0 0
258 86 2 -0.35 93.03066464427516 63.727066540932086 1.4517557903425704 0 0 0
259 87 1 0.7 137.49836459313443 32.01371681038929 160.53843221279718 0 0 0
260 87 2 -0.35 137.18492916226128 31.50467798166121 161.532533667137 0 0 0
261 87 2 -0.35 137.81180002400757 32.52275563911737 159.54433075845736 0 0 0
262 88 1 0.7 5.430200482453313 167.37950859283075 71.40091970628171 0 0 0
263 88 2 -0.35 5.4348512089518515 167.12065156229949 70.27018038685942 0 0 0
264 88 2 -0.35 5.4255497559547745 167.638365623362 72.531659025704 0 0 0
265 89 1 0.7 74.25750347657944 78.86093087068802 147.66514365359447 0 0 0
266 89 2 -0.35 73.48140881647404 79.3535956908144 146.95764209630593 0 0 0
267 89 2 -0.35 75.03359813668484 78.36826605056164 148.372645210883 0 0 0
268 90 1 0.7 49.06938596259308 102.16987330195022 104.06058587742065 0 0 0
269 90 2 -0.35 49.8235238368337 101.39411860085677 104.47901234690751 0 0 0
270 90 2 -0.35 48.31524808835246 102.94562800304367 103.64215940793379 0 0 0
271 91 1 0.7 129.2668418089239 32.81028258419143 129.41939250539028 0 0 0
272 91 2 -0.35 128.26082381530765 32.61179020139195 128.87705629003037 0 0 0
273 91 2 -0.35 130.27285980254018 33.008774966990906 129.9617287207502 0 0 0
274 92 1 0.7 139.72983809454823 114.3888550723851 25.487201576348024 0 0 0
275 92 2 -0.35 138.84385840334616 114.09635766244291 26.176465859446044 0 0 0
276 92 2 -0.35 140.6158177857503 114.68135248232728 24.797937293250005 0 0 0
277 93 1 0.7 89.39689368121182 132.59210012694453 165.42683355669809 0 0 0
278 93 2 -0.35 88.23789765865295 132.5449118110554 165.43690741079104 0 0 0
279 93 2 -0.35 90.55588970377069 132.63928844283365 165.41675970260513 0 0 0
280 94 1 0.7 138.79158742483315 32.209849170506864 54.93500870882301 0 0 0
281 94 2 -0.35 138.8810424831053 31.54755192277254 55.88314379845585 0 0 0
282 94 2 -0.35 138.70213236656102 32.872146418241186 53.98687361919018 0 0 0
283 95 1 0.7 27.691369188340087 90.84194843184294 38.627293984232146 0 0 0
284 95 2 -0.35 26.54047741852376 90.70325464701467 38.66986355339906 0 0 0
285 95 2 -0.35 28.842260958156412 90.9806422166712 38.58472441506523 0 0 0
286 96 1 0.7 182.92999298960436 41.392176280446435 158.30674546319375 0 0 0
287 96 2 -0.35 182.31181220937265 41.72730219944463 159.2293196560735 0 0 0
288 96 2 -0.35 183.54817376983607 41.05705036144824 157.384171270314 0 0 0
289 97 1 0.7 108.47099989721133 167.09527243072878 19.243743258641913 0 0 0
290 97 2 -0.35 108.46300224872081 167.55674011712117 18.17951414231673 0 0 0
291 97 2 -0.35 108.47899754570184 166.6338047443364 20.307972374967097 0 0 0
292 98 1 0.7 50.59294799463495 4.676945829613575 170.42855831535002 0 0 0
293 98 2 -0.35 50.30149758657596 4.093188889336171 171.3876644066247 0 0 0
294 98 2 -0.35 50.88439840269393 5.260702769890979 169.46945222407533 0 0 0
295 99 1 0.7 97.77960608749632 26.839512550662977 137.68743899263788 0 0 0
296 99 2 -0.35 96.68230446991811 26.56386074995054 137.4314209369773 0 0 0
297 99 2 -0.35 98.87690770507453 27.115164351375416 137.94345704829846 0 0 0
298 100 1 0.7 185.78714926484375 55.61769422870953 161.5869019211209 0 0 0
299 100 2 -0.35 185.51955874516256 56.734567749608324 161.4238410365045 0 0 0
300 100 2 -0.35 186.05473978452494 54.50082070781074 161.74996280573728 0 0 0
301 101 1 0.7 50.060588278835915 129.30720239519476 144.15065603849976 0 0 0
302 101 2 -0.35 49.1894521757435 129.21183442235093 143.39063838104394 0 0 0
303 101 2 -0.35 50.93172438192833 129.4025703680386 144.91067369595558 0 0 0
304 102 1 0.7 138.07603906517664 101.98856842377621 80.86949840694177 0 0 0
305 102 2 -0.35 139.1713594960035 102.3704174497525 80.86146876347452 0 0 0
306 102 2 -0.35 136.98071863434978 101.60671939779994 80.87752805040903 0 0 0
307 103 1 0.7 74.65972547030995 35.005979499316766 177.49744501686536 0 0 0
308 103 2 -0.35 73.6336222909467 34.46630097942339 177.45924344011348 0 0 0
309 103 2 -0.35 75.6858286496732 35.545658019210144 177.53564659361723 0 0 0
310 104 1 0.7 23.55839845610708 180.0028517916812 173.9300627857121 0 0 0
311 104 2 -0.35 22.398803598053487 180.02469190711736 173.90855059071947 0 0 0
312 104 2 -0.35 24.717993314160676 179.98101167624503 173.95157498070472 0 0 0
313 105 1 0.7 168.5652394632647 154.97965908980913 134.1303224219616 0 0 0
314 105 2 -0.35 167.68529626383346 155.62571784131188 133.73801125033705 0 0 0
315 105 2 -0.35 169.44518266269594 154.33360033830638 134.52263359358616 0 0 0
316 106 1 0.7 125.32894590884865 187.5938900190377 181.5095499667849 0 0 0
317 106 2 -0.35 124.19891683538282 187.51531620085098 181.25962908286863 0 0 0
318 106 2 -0.35 126.45897498231449 187.67246383722443 181.75947085070118 0 0 0
319 107 1 0.7 171.00629175408105 168.74551084020433 160.80069131394882 0 0 0
320 107 2 -0.35 171.70528426725818 167.82803279990443 160.92415593272602 0 0 0
321 107 2 -0.35 170.30729924090392 169.66298888050423 160.6772266951716 0 0 0
322 108 1 0.7 66.21891353755207 109.27982563771299 153.0294930422816 0 0 0
323 108 2 -0.35 67.3699663420829 109.32415222036435 153.16628703064424 0 0 0
324 108 2 -0.35 65.06786073302123 109.23549905506162 152.89269905391893 0 0 0
325 109 1 0.7 54.68956162672935 60.4622604402072 125.21121856254116 0 0 0
326 109 2 -0.35 53.54165396611255 60.56345790630515 125.07830101083101 0 0 0
327 109 2 -0.35 55.83746928734615 60.36106297410925 125.34413611425131 0 0 0
328 110 1 0.7 98.9503806293711 48.04723784003744 121.92637750922067 0 0 0
329 110 2 -0.35 99.72162340694376 48.81245424013388 122.33286052124633 0 0 0
330 110 2 -0.35 98.17913785179843 47.282021439941 121.51989449719501 0 0 0
331 111 1 0.7 78.626797471953 181.58511111400327 117.96249305315433 0 0 0
332 111 2 -0.35 77.78794570516274 181.87786917593218 118.70829492398094 0 0 0
333 111 2 -0.35 79.46564923874325 181.29235305207436 117.21669118232772 0 0 0
334 112 1 0.7 174.62074436462518 58.85053625556199 63.962847230472995 0 0 0
335 112 2 -0.35 173.7455141051083 58.13571581119766 64.22477035878507 0 0 0
336 112 2 -0.35 175.49597462414206 59.56535669992632 63.70092410216093 0 0 0
337 113 1 0.7 180.5734025596517 124.17682006637419 101.81485555079526 0 0 0
338 113 2 -0.35 179.5812513887062 124.75358198082938 101.98391692434186 0 0 0
339 113 2 -0.35 181.5655537305972 123.600058151919 101.64579417724866 0 0 0
340 114 1 0.7 185.27724221594502 179.60992338816166 184.9823848330334 0 0 0
341 114 2 -0.35 184.1945846466245 179.3475541121615 184.65894248793285 0 0 0
342 114 2 -0.35 186.35989978526555 179.87229266416182 185.30582717813394 0 0 0
343 115 1 0.7 137.94188879194758 115.32492626287274 71.03570010188767 0 0 0
344 115 2 -0.35 138.8555136729667 115.45927270879875 70.33367402740765 0 0 0
345 115 2 -0.35 137.02826391092844 115.19057981694672 71.73772617636769 0 0 0
346 116 1 0.7 173.01161242602933 41.170044275079874 15.93413126744988 0 0 0
347 116 2 -0.35 173.2406916885378 40.095011929311354 15.563418242267305 0 0 0
348 116 2 -0.35 172.78253316352087 42.245076620848394 16.304844292632453 0 0 0
349 117 1 0.7 180.94421203012774 119.37159035698119 43.319129782877454 0 0 0
350 117 2 -0.35 181.1347359922706 119.2599081918851 42.18034634699123 0 0 0
351 117 2 -0.35 180.75368806798488 119.48327252207727 44.45791321876368 0 0 0
352 118 1 0.7 36.61426082142361 180.8816256666936 12.482580119503002 0 0 0
353 118 2 -0.35 35.45966898452231 180.95441806595102 12.567544563661821 0 0 0
354 118 2 -0.35 37.76885265832492 180.80883326743617 12.397615675344182 0 0 0
355 119 1 0.7 4.72406848693456 17.41905990914398 1.1398929828498015 0 0 0
356 119 2 -0.35 5.72116421072168 17.845676206241887 1.5514736586059739 0 0 0
357 119 2 -0.35 3.7269727631474407 16.99244361204607 0.7283123070936292 0 0 0
358 120 1 0.7 69.18136275661242 3.1638503848406723 65.83341801717572 0 0 0
359 120 2 -0.35 68.52930937090814 2.2794284745692117 66.20520326005575 0 0 0
360 120 2 -0.35 69.8334161423167 4.048272295112133 65.46163277429568 0 0 0
361 121 1 0.7 56.25661467213957 126.92279464980717 137.4096793091901 0 0 0
362 121 2 -0.35 55.211275248567716 126.44201137339768 137.5570323907711 0 0 0
363 121 2 -0.35 57.30195409571142 127.40357792621667 137.2623262276091 0 0 0
364 122 1 0.7 53.48014955803759 145.87362193776 178.96390793191452 0 0 0
365 122 2 -0.35 52.52700625401004 145.28337972675524 178.66602880485848 0 0 0
366 122 2 -0.35 54.43329286206514 146.46386414876474 179.26178705897055 0 0 0
367 123 1 0.7 100.40061168717249 41.08062630802422 25.086358963086436 0 0 0
368 123 2 -0.35 100.39161981149668 41.61500785559376 24.05681755654223 0 0 0
369 123 2 -0.35 100.40960356284829 40.546244760454684 26.11590036963064 0 0 0
370 124 1 0.7 156.43509259374585 25.601223086286904 115.75641122402456 0 0 0
371 124 2 -0.35 155.2830150657699 25.698362992165308 115.85065138647526 0 0 0
372 124 2 -0.35 157.5871701217218 25.5040831804085 115.66217106157386 0 0 0
373 125 1 0.7 141.00344218081023 162.85273287764412 156.88147456472808 0 0 0
374 125 2 -0.35 140.124472683972 163.23242537457423 156.22661104352468 0 0 0
375 125 2 -0.35 141.88241167764846 162.473040380714 157.53633808593148 0 0 0
376 126 1 0.7 156.94300938488126 57.158731699063786 168.80366616500712 0 0 0
377 126 2 -0.35 156.29887674794023 56.263175660140085 169.1623756953721 0 0 0
378 126 2 -0.35 157.5871420218223 58.05428773798749 168.44495663464212 0 0 0
379 127 1 0.7 4.217235274714062 4.0732621192341965 41.3164379691316 0 0 0
380 127 2 -0.35 3.8667731443829174 5.023045900590434 41.882730352866716 0 0 0
381 127 2 -0.35 4.567697405045206 3.1234783378779585 40.75014558539648 0 0 0
382 128 1 0.7 19.372947194787184 143.12350278819144 73.71136113335908 0 0 0
383 128 2 -0.35 18.46450840117076 142.59948739922717 73.21563254796042 0 0 0
384 128 2 -0.35 20.281385988403606 143.64751817715572 74.20708971875773 0 0 0
385 129 1 0.7 160.84656836597554 81.27452695103106 77.97446597925129 0 0 0
386 129 2 -0.35 159.78606440601868 81.73933353420449 78.04436727505097 0 0 0
387 129 2 -0.35 161.9070723259324 80.80972036785764 77.90456468345161 0 0 0
388 130 1 0.7 179.84971327653608 57.131038741735296 81.36813234508416 0 0 0
389 130 2 -0.35 178.77987394904534 56.90484326680497 80.98098970925697 0 0 0
390 130 2 -0.35 180.91955260402682 57.357234216665624 81.75527498091135 0 0 0
391 131 1 0.7 139.20032382952064 97.84260275347279 140.62447761726773 0 0 0