LAMMPS data file via write_data, version 29 Aug 2024, timestep = 4000000, units = real

1500 atoms
2 atom types
1000 bonds
1 bond types
500 angles
1 angle types

0 189 xlo xhi
0 189 ylo yhi
0 189 zlo zhi

Masses

1 12.0107
2 15.9994

PairIJ Coeffs # lj/cut/coul/long/gpu

1 1 0.053649 2.8 12
1 2 0.0917684 2.925 12
2 2 0.156973 3.05 12

Bond Coeffs # harmonic

1 0 1.16

Angle Coeffs # harmonic

1 0 180

Atoms # full

1330 444 1 0.7 10.80316241773122 11.444753488882187 11.432914018893142 4 5 -5
1332 444 2 -0.35 9.953232041341508 10.943588592862845 10.822953280577195 4 5 -5
1331 444 2 -0.35 11.653092794120932 11.945918384901526 12.042874757209088 4 5 -5
760 254 1 0.7 72.4788371188173 10.442903857244945 0.3978934976837691 -9 1 -4
761 254 2 -0.35 72.16181720348223 11.558202825247513 0.4326294337250516 -9 1 -4
762 254 2 -0.35 72.79585703415236 9.327604889242377 0.3631575616424866 -9 1 -4
1254 418 2 -0.35 82.51931776026298 2.0698530532155255 3.2587749961584205 -9 13 3
1253 418 2 -0.35 83.41570743104326 0.06562042005339475 4.008399642421166 -9 13 3
1252 418 1 0.7 82.96751259565312 1.0677367366344583 3.6335873192897905 -9 13 3
870 290 2 -0.35 161.27807580498387 0.9104430709242985 14.73737081363156 -1 -1 3
76 26 1 0.7 0.4147957703740007 21.25015687685232 3.2371860831764807 -1 4 3
77 26 2 -0.35 1.0590029586217273 21.944300482578186 3.907082906007247 -1 4 3
313 105 1 0.7 28.831302865537044 19.161515453572488 4.605949371222948 1 0 1
314 105 2 -0.35 28.911569071275586 19.06706215275587 5.7593079061899175 1 0 1
315 105 2 -0.35 28.751036659798498 19.255968754389105 3.4525908362559785 1 0 1
1170 390 2 -0.35 136.6346722799762 19.46964884921281 7.793333405491631 -3 2 5
1168 390 1 0.7 135.79139050268313 18.673109120727734 7.793885702593898 -3 2 5
1169 390 2 -0.35 134.94810872539003 17.876569392242658 7.794437999696165 -3 2 5
78 26 2 -0.35 188.7705885821263 20.556013271126453 2.5672892603457145 -2 4 3
507 169 2 -0.35 44.46670354983726 39.3108934593439 12.871590257712837 4 1 -6
505 169 1 0.7 44.71287782829804 40.377235951327 12.486997077304142 4 1 -6
506 169 2 -0.35 44.95905210675882 41.4435784433101 12.10240389689545 4 1 -6
545 182 2 -0.35 97.81478305118681 38.79405234601822 15.809315815398008 2 4 5
544 182 1 0.7 97.79846414990283 39.759311724926874 16.45243946205618 2 4 5
704 235 2 -0.35 96.95137047166006 62.64882966249415 11.861654776471083 -3 4 0
703 235 1 0.7 96.69814830318421 63.67315645707413 12.343560525864694 -3 4 0
705 235 2 -0.35 96.44492613470838 64.6974832516541 12.825466275258307 -3 4 0
1160 387 2 -0.35 93.72638965577086 66.68018313286989 1.3297127104382893 6 -1 -4
1159 387 1 0.7 93.94614598495909 67.80918049005881 1.480285361486426 6 -1 -4
374 125 2 -0.35 105.70287650710219 52.814814096798 3.9686143635756643 -6 2 3
373 125 1 0.7 106.83269977942797 53.07742214876928 3.956935992438768 -6 2 3
375 125 2 -0.35 107.96252305175373 53.340030200740564 3.9452576213018715 -6 2 3
595 199 1 0.7 22.171383833801357 78.36037681578684 7.39632684895487 -6 3 6
596 199 2 -0.35 22.177113050562436 77.93644936848739 6.316580260397249 -6 3 6
1158 386 2 -0.35 30.0772397994624 85.82792539088446 13.916432939654177 -2 2 6
597 199 2 -0.35 22.16565461704028 78.78430426308628 8.476073437512492 -6 3 6
1156 386 1 0.7 29.274595080777477 85.146201307625 14.402862513048111 -2 2 6
1157 386 2 -0.35 28.471950362092556 84.46447722436554 14.889292086442047 -2 2 6
1367 456 2 -0.35 24.545914113777012 83.2021335491751 1.6977951789351815 -2 1 0
1366 456 1 0.7 24.45632359698553 82.12263055280872 2.112821467421342 -2 1 0
1368 456 2 -0.35 24.36673308019405 81.04312755644233 2.5278477559075023 -2 1 0
357 119 2 -0.35 51.670134167808364 72.58238584683477 10.888708248920986 8 3 -2
356 119 2 -0.35 52.58196768362721 73.11569189852978 12.954269745137122 8 3 -2
355 119 1 0.7 52.126050925717784 72.84903887268227 11.921488997029053 8 3 -2
1161 387 2 -0.35 94.1659023141473 68.93817784724772 1.6308580125345626 6 -1 -4
894 298 2 -0.35 101.86029037808423 85.0275365189687 16.493912840366356 -2 -1 6
892 298 1 0.7 103.01502370643038 85.04276509387948 16.60327019454585 -2 -1 6
632 211 2 -0.35 117.57630338840407 79.27029942931442 2.2881558501598045 -2 6 4
633 211 2 -0.35 117.35655842298029 77.76513123032531 0.5364193280405664 -2 6 4
631 211 1 0.7 117.46643090569218 78.51771532981986 1.4122875891001854 -2 6 4
209 70 2 -0.35 123.8003643352211 80.57185496899604 10.994693226158928 -4 9 -5
208 70 1 0.7 124.7316459722644 79.94140316280632 10.710360617090592 -4 9 -5
210 70 2 -0.35 125.6629276093077 79.31095135661663 10.426028008022255 -4 9 -5
95 32 2 -0.35 176.3497801109689 78.72412511040979 14.942283799541753 -7 2 -2
94 32 1 0.7 176.97316957632944 79.6952403830352 15.0602698230904 -7 2 -2
96 32 2 -0.35 177.59655904168997 80.66635565566062 15.178255846639047 -7 2 -2
674 225 2 -0.35 19.09156465304567 91.58361283127077 11.272362765890117 -3 0 -1
673 225 1 0.7 18.761620349184753 91.98021734480004 10.233400968616083 -3 0 -1
675 225 2 -0.35 18.431676045323837 92.37682185832931 9.194439171342049 -3 0 -1
1472 491 2 -0.35 42.708187265026595 94.05419454428406 4.509702244578785 7 -1 3
1471 491 1 0.7 41.750942503432405 93.9794461317648 3.8587835543992917 7 -1 3
1473 491 2 -0.35 40.793697741838216 93.90469771924555 3.207864864219799 7 -1 3
1123 375 1 0.7 46.50362228932674 94.37411283309343 7.49962451672162 -7 2 6
1125 375 2 -0.35 46.78575326705539 93.39407275035909 6.946882671336007 -7 2 6
1124 375 2 -0.35 46.22149131159809 95.3541529158278 8.052366362107232 -7 2 6
469 157 1 0.7 78.77813367493465 88.16835439786595 16.730167895898344 -7 -4 1
470 157 2 -0.35 77.8652748084687 87.96662186453632 16.043441840683286 -7 -4 1
281 94 2 -0.35 92.84290454233958 96.39692308330152 6.225087169685424 -7 5 5
280 94 1 0.7 93.48519387119656 95.82256344018134 5.448443481505774 -7 5 5
282 94 2 -0.35 94.12748320005352 95.24820379706118 4.671799793326123 -7 5 5
1191 397 2 -0.35 183.12064292257273 93.12414225159155 13.172370232278103 -2 4 0
1190 397 2 -0.35 182.54320868421033 95.1397903287785 12.179328174100725 -2 4 0
1189 397 1 0.7 182.83192580339153 94.13196629018502 12.675849203189415 -2 4 0
212 71 2 -0.35 164.79763414140157 117.76676205703365 1.4356126729426641 -2 1 0
211 71 1 0.7 164.968719099787 116.66134104028863 1.1284086483064264 -2 1 0
213 71 2 -0.35 165.13980405817244 115.5559200235436 0.8212046236701889 -2 1 0
1248 416 2 -0.35 156.02575116194126 121.40846163927489 3.950566631345516 0 1 1
29 10 2 -0.35 164.65369218010113 118.10152892691153 10.74529255217644 0 -7 1
28 10 1 0.7 165.81137531878056 118.09360134527924 10.67244405277194 0 -7 1
30 10 2 -0.35 166.96905845746 118.08567376364697 10.59959555336744 0 -7 1
1250 417 2 -0.35 14.084354832255274 135.52914805477056 2.729304379828053 -4 6 0
1249 417 1 0.7 13.331959081618608 136.3577971348186 3.0340031434557875 -4 6 0
1251 417 2 -0.35 12.579563330981943 137.18644621486666 3.338701907083522 -4 6 0
945 315 2 -0.35 11.27032143854731 134.88242163884044 1.7102185470119062 -5 -14 0
1256 419 2 -0.35 68.69562562676965 128.29935436821734 12.813154407578006 7 -3 3
1255 419 1 0.7 68.95914363800571 127.23390616121213 12.437683535281275 7 -3 3
1257 419 2 -0.35 69.22266164924179 126.16845795420694 12.062212662984546 7 -3 3
495 165 2 -0.35 92.84992367189925 135.7930377505031 6.09798552756604 2 -4 6
493 165 1 0.7 92.00231165522646 135.07143624105862 6.424244827449579 2 -4 6
494 165 2 -0.35 91.15469963855368 134.34983473161415 6.750504127333118 2 -4 6
1378 460 1 0.7 98.93830794953408 129.67067184529853 17.26148273344779 -5 -2 -9
1380 460 2 -0.35 98.7671923974343 130.8174669788967 17.295839528752495 -5 -2 -9
1004 335 2 -0.35 151.47539724209602 137.59852438406367 8.575936736952958 1 -2 0
1246 416 1 0.7 156.86042408166674 121.96773703396107 3.370797582520569 0 1 1
1247 416 2 -0.35 157.6950970013922 122.52701242864725 2.791028533695622 0 1 1
850 284 1 0.7 27.592430839492472 153.61385955098237 10.332614508480859 4 5 6
852 284 2 -0.35 27.60212612634966 154.314136751217 9.407888687362748 4 5 6
851 284 2 -0.35 27.582735552635288 152.91358235074773 11.25734032959897 4 5 6
848 283 2 -0.35 55.140829431105885 145.9909082006581 9.52582807493261 -5 2 -2
847 283 1 0.7 55.346071134173535 146.10019187077478 10.662284375354412 -5 2 -2
849 283 2 -0.35 55.55131283724119 146.20947554089145 11.798740675776216 -5 2 -2
601 201 1 0.7 95.15001517638997 153.14152048420752 3.6967785934939656 1 1 4
602 201 2 -0.35 95.58272666833086 152.58847728165938 4.620090014876724 1 1 4
603 201 2 -0.35 94.71730368444908 153.69456368675566 2.773467172111207 1 1 4
1005 335 2 -0.35 151.54729487729625 139.78628166062174 9.34466869863611 1 -2 0
1324 442 1 0.7 155.03698837070516 147.36195232362002 3.76607233014691 2 3 -2
1326 442 2 -0.35 155.83406625975366 147.96471870061123 4.355088063009223 2 3 -2
1325 442 2 -0.35 154.23991048165664 146.75918594662883 3.1770565972845977 2 3 -2
867 289 2 -0.35 141.19652519760788 144.904809584408 2.4230938302513447 -9 2 -4
865 289 1 0.7 142.1429155862115 145.0472503667091 3.078575222738225 -9 2 -4
866 289 2 -0.35 143.0893059748151 145.1896911490102 3.7340566152251053 -9 2 -4
1003 335 1 0.7 151.51134605969614 138.6924030223427 8.960302717794534 1 -2 0
55 19 1 0.7 50.51633896357118 158.15801521453366 5.620814056089856 -2 0 0
56 19 2 -0.35 51.011719531429314 157.38739283210083 6.3323892360118865 -2 0 0
57 19 2 -0.35 50.02095839571305 158.9286375969665 4.909238876167825 -2 0 0
1213 405 1 0.7 48.67167440856241 162.11708323588834 17.111306603311025 -3 2 0
1215 405 2 -0.35 48.90118900903696 161.33789639130865 16.283181667445053 -3 2 0
347 116 2 -0.35 76.10522051846009 159.92852136240919 8.013266777745596 -1 -2 -1
348 116 2 -0.35 78.31510285438812 160.633655600029 8.053338816510179 -1 -2 -1
346 116 1 0.7 77.2101616864241 160.2810884812191 8.033302797127886 -1 -2 -1
467 156 2 -0.35 82.6670733876032 171.01463530419895 9.125878468941863 -1 4 7
466 156 1 0.7 82.91540624113254 171.95447586249466 8.492924664278855 -1 4 7
468 156 2 -0.35 83.16373909466188 172.89431642079037 7.859970859615845 -1 4 7
283 95 1 0.7 113.79003153844529 169.26672812432483 2.9769211866075898 2 0 2
284 95 2 -0.35 114.44314328399723 168.6817278309891 2.2174347123249243 2 0 2
285 95 2 -0.35 113.13691979289335 169.85172841766052 3.7364076608902552 2 0 2
1120 374 1 0.7 111.09524644379773 173.0112869280927 4.097289824126336 3 -5 8
1122 374 2 -0.35 110.94721283348548 172.29121882492805 4.994612495756113 3 -5 8
1431 477 2 -0.35 183.5621279092133 172.86695086121662 5.896576911250167 -2 3 4
1292 431 2 -0.35 103.58391950735592 181.2568247145947 15.563658753014783 7 0 -2
1293 431 2 -0.35 102.87880316353103 183.24681351829494 16.525508794768857 7 0 -2
1291 431 1 0.7 103.23136133544347 182.2518191164448 16.04458377389182 7 0 -2
1121 374 2 -0.35 111.24328005410999 173.73135503125732 3.1999671524965603 3 -5 8
869 290 2 -0.35 161.1185528088987 188.00179701178538 16.04657768599879 -1 -2 3
868 290 1 0.7 161.19831430694128 188.95612004135484 15.391974249815174 -1 -2 3
1429 477 1 0.7 183.82011304675598 173.37140968154839 6.908784877725501 -2 3 4
1430 477 2 -0.35 184.07809818429868 173.87586850188015 7.920992844200835 -2 3 4
1440 480 2 -0.35 25.106175358367445 10.104678640596209 24.526114045542165 6 -1 3
1438 480 1 0.7 25.05445092794272 8.954543453415184 24.66793659136415 6 -1 3
1439 480 2 -0.35 25.002726497517994 7.804408266234157 24.809759137186138 6 -1 3
1058 353 2 -0.35 20.176218598142857 16.339625631334624 22.418313175119454 -1 7 -9
137 46 2 -0.35 182.80101312713705 11.688948026780992 22.081974007530263 -3 -4 -3
138 46 2 -0.35 182.01726713592637 13.729820941798106 21.30545616097529 -3 -4 -3
136 46 1 0.7 182.4091401315317 12.709384484289549 21.693715084252776 -3 -4 -3
974 325 2 -0.35 5.215036852006694 29.485815913708024 24.491749740709913 1 5 -1
973 325 1 0.7 6.150090099581912 28.79988889518672 24.519670153708418 1 5 -1
975 325 2 -0.35 7.085143347157131 28.113961876665414 24.54759056670692 1 5 -1
1059 353 2 -0.35 21.415128915297213 17.585780398252805 23.933106732978132 -1 7 -9
1057 353 1 0.7 20.795673756720035 16.962703014793714 23.175709954048795 -1 7 -9
308 103 2 -0.35 163.28761690513514 26.998869228134858 31.91823732742092 -2 -6 -2
307 103 1 0.7 162.38157366697672 27.687844203380337 31.694632465950395 -2 -6 -2
309 103 2 -0.35 161.4755304288183 28.376819178625816 31.471027604479872 -2 -6 -2
296 99 2 -0.35 31.51331420793165 36.644869574649114 20.015365686147007 -2 2 6
295 99 1 0.7 31.689606707946435 37.769089096058885 19.790306977985903 -2 2 6
297 99 2 -0.35 31.86589920796122 38.89330861746865 19.565248269824796 -2 2 6
247 83 1 0.7 86.07708709950764 51.21388442130304 29.245378869558188 -7 4 -2
249 83 2 -0.35 85.92355232233498 50.17529503343058 29.73869332869721 -7 4 -2
546 182 2 -0.35 97.78214524861883 40.72457110383553 17.09556310871435 2 4 5
1089 363 2 -0.35 91.61276492230841 50.79530531006717 33.23566220555328 -2 -1 -6
1087 363 1 0.7 91.347841871883 50.270600179043655 34.23571235571103 -2 -1 -6
192 64 2 -0.35 7.252177527584267 53.07985687691901 28.724875708204127 1 -1 -2
190 64 1 0.7 7.029765745719059 53.265317720128806 27.601604914974782 1 -1 -2
191 64 2 -0.35 6.807353963853853 53.4507785633386 26.47833412174544 1 -1 -2
482 161 2 -0.35 22.218940137583328 60.469426712558686 29.01372738836596 3 3 4
481 161 1 0.7 21.754999501063196 60.305988151386536 30.064273399975125 3 3 4
483 161 2 -0.35 21.291058864543064 60.14254959021439 31.11481941158429 3 3 4
1341 447 2 -0.35 22.893507936668087 65.43011408415127 26.753656246277316 6 -1 -1
1339 447 1 0.7 23.69887187981869 64.80976195864413 26.194950456570634 6 -1 -1
1340 447 2 -0.35 24.504235822969296 64.18940983313698 25.636244666863952 6 -1 -1
248 83 2 -0.35 86.23062187668029 52.2524738091755 28.752064410419162 -7 4 -2
235 79 1 0.7 94.74219547557016 64.34388613212631 26.91042277602351 1 -9 -3
236 79 2 -0.35 95.33548230951203 63.71664546454297 27.685135547056102 1 -9 -3
237 79 2 -0.35 94.14890864162827 64.97112679970965 26.13571000499092 1 -9 -3
732 244 2 -0.35 130.83980388740721 61.36207987228935 30.51512582101042 -6 0 1
730 244 1 0.7 131.14926546254605 62.423851562717964 30.165162378755902 -6 0 1
731 244 2 -0.35 131.4587270376849 63.48562325314658 29.815198936501382 -6 0 1
858 286 2 -0.35 53.78867357147723 77.60794152590024 21.159767925748998 5 5 -5
856 286 1 0.7 53.514915176752815 78.34425718598604 22.01328745688415 5 5 -5
857 286 2 -0.35 53.24115678202839 79.08057284607182 22.866806988019302 5 5 -5
893 298 2 -0.35 104.16975703477652 85.05799366879025 16.712627548725344 -2 -1 6
960 320 2 -0.35 136.09952669060584 73.5785909728572 21.266331764152675 0 1 -3
959 320 2 -0.35 136.72192939178413 71.52980807717121 22.15936229213344 0 1 -3
958 320 1 0.7 136.41072804119497 72.5541995250142 21.712847028143056 0 1 -3
1107 369 2 -0.35 165.24863327901593 72.75056212390112 23.64635125240971 1 4 1
1105 369 1 0.7 164.7673074699473 72.53430625242422 24.679385067721203 1 4 1
1106 369 2 -0.35 164.2859816608787 72.3180503809473 25.7124188830327 1 4 1
911 304 2 -0.35 173.23565156946933 73.44917711839076 27.58277340770614 5 -1 3
912 304 2 -0.35 173.5187131353675 72.2311756767861 25.628611531566275 5 -1 3
910 304 1 0.7 173.37718235241843 72.84017639758844 26.605692469636207 5 -1 3
327 109 2 -0.35 4.637921512146692 103.18592587263609 25.58258098222597 0 0 1
891 297 2 -0.35 26.132640426732287 88.55565540390478 23.35035475643668 8 5 1
890 297 2 -0.35 27.820300376039615 87.87733770406793 21.91018497700193 8 5 1
889 297 1 0.7 26.976470401385953 88.21649655398635 22.630269866719303 8 5 1
471 157 2 -0.35 79.6909925414006 88.37008693119557 17.416893951113398 -7 -4 1
572 191 2 -0.35 82.64393081140975 91.13693444545663 33.86189450731227 0 -1 -4
816 272 2 -0.35 172.91673967578305 92.51614177326225 26.6921684098067 -7 6 -1
814 272 1 0.7 172.61246247416244 93.62081034235388 26.511274139484616 -7 6 -1
815 272 2 -0.35 172.30818527254183 94.72547891144549 26.330379869162535 -7 6 -1
326 109 2 -0.35 3.357382791854436 104.80691591180135 24.526639753386934 0 0 1
325 109 1 0.7 3.9976521520005637 103.99642089221872 25.054610367806454 0 0 1
390 130 2 -0.35 50.23941479483615 107.14846024497 35.12697068197999 3 1 -5
222 74 2 -0.35 38.90252375780098 109.48229810268529 32.41385955949216 2 1 3
220 74 1 0.7 38.226656825903504 109.38232388661108 31.47641140279919 2 1 3
221 74 2 -0.35 37.55078989400604 109.28234967053686 30.538963246106217 2 1 3
1304 435 2 -0.35 182.88249944429415 120.23437456338 19.94066417576902 2 3 0
1303 435 1 0.7 182.62703989798408 119.19354461107781 19.49680222584596 2 3 0
1305 435 2 -0.35 182.37158035167397 118.15271465877562 19.052940275922904 2 3 0
275 92 2 -0.35 4.67815002353567 126.88636583727533 20.205031003749056 -4 -2 5
276 92 2 -0.35 2.99940997613702 125.83554795832181 21.413341244760474 -4 -2 5
274 92 1 0.7 3.838779999836345 126.36095689779857 20.809186124254765 -4 -2 5
1379 460 2 -0.35 99.10942350163386 128.52387671170038 17.227125938143086 -5 -2 -9
1389 463 2 -0.35 180.77753196073996 138.17400560874685 34.295353070342465 -10 7 -1
1487 496 2 -0.35 10.733014745398913 155.81150569784342 20.590763917551286 -2 -4 -1
1237 413 1 0.7 2.605044710920686 140.45735478154288 33.613814590444385 -5 -5 0
1238 413 2 -0.35 2.9966389981794084 141.3746599442987 33.02152652491595 -5 -5 0
1239 413 2 -0.35 2.2134504236619628 139.54004961878704 34.20610265597283 -5 -5 0
753 251 2 -0.35 41.46562280141675 147.28268872869023 27.679301800627012 3 5 6
751 251 1 0.7 40.60971449098831 146.62677211756392 27.251757225887395 3 5 6
881 294 2 -0.35 43.243448953781645 145.1993130409646 25.993988973152632 -9 4 -5
880 294 1 0.7 43.086784698552066 145.92396463956072 25.101836311448608 -9 4 -5
882 294 2 -0.35 42.93012044332248 146.64861623815685 24.209683649744584 -9 4 -5
752 251 2 -0.35 39.75380618055987 145.9708555064376 26.82421265114778 3 5 6
1202 401 2 -0.35 112.9083176195391 151.43985744499284 27.106513733819693 -6 -5 -3
1201 401 1 0.7 113.30242700089048 150.89205376296925 28.050011969903586 -6 -5 -3
1203 401 2 -0.35 113.69653638224185 150.34425008094567 28.993510205987477 -6 -5 -3
1104 368 2 -0.35 123.20080873009952 141.85376888446748 23.914215027062948 -3 9 -3
1102 368 1 0.7 122.72229744308866 140.79714493646173 23.90107041957808 -3 9 -3
1103 368 2 -0.35 122.2437861560778 139.74052098845598 23.887925812093208 -3 9 -3
1387 463 1 0.7 180.41314783519502 139.22583154998068 34.621675607717016 -10 7 -1
1486 496 1 0.7 10.869764988737352 156.3655454306312 21.600684382459505 -2 -4 -1
1488 496 2 -0.35 11.006515232075788 156.919585163419 22.61060484736773 -2 -4 -1
398 133 2 -0.35 28.434630227109032 159.10766142206657 19.552905791029364 -5 1 0
399 133 2 -0.35 28.252249138185284 158.77779379201482 21.842081294358625 -5 1 0
397 133 1 0.7 28.34343968264716 158.9427276070407 20.697493542693994 -5 1 0
1214 405 2 -0.35 48.44215980808785 162.896270080468 17.939431539176997 -3 2 0
457 153 1 0.7 120.44613515584625 164.10739877390353 32.39504536092219 0 -2 1
458 153 2 -0.35 120.69374153518089 163.10294520484882 31.870293887818193 0 -2 1
151 51 1 0.7 121.61818295565617 167.0923087032257 25.307694794297174 0 -2 -6
153 51 2 -0.35 122.42957736086794 167.6662131106124 24.709470045249414 0 -2 -6
459 153 2 -0.35 120.19852877651161 165.11185234295823 32.91979683402619 0 -2 1
152 51 2 -0.35 120.8067885504444 166.51840429583902 25.905919543344936 0 -2 -6
51 17 2 -0.35 154.12356490366227 159.771022629147 35.11614995900333 3 -2 2
50 17 2 -0.35 153.45801779021588 161.71529288784959 34.03946049545754 3 -2 2
49 17 1 0.7 153.79079134693907 160.7431577584983 34.577805227230435 3 -2 2
1241 414 2 -0.35 161.89654573813405 160.37402588982926 24.511709301814143 -2 1 8
1240 414 1 0.7 161.58821900470656 160.5410791692626 25.617434325174212 -2 1 8
1242 414 2 -0.35 161.27989227127907 160.70813244869592 26.72315934853428 -2 1 8
194 65 2 -0.35 46.705282977778914 179.1838508856393 31.31562651535191 -1 -5 1
193 65 1 0.7 45.72063184779968 178.89795026409473 30.773111089920537 -1 -5 1
195 65 2 -0.35 44.73598071782045 178.61204964255018 30.230595664489165 -1 -5 1
1335 445 2 -0.35 62.58954557078641 176.88061876590203 24.76740300253743 1 1 4
1333 445 1 0.7 63.21800638095096 177.70861460555253 25.28224268594298 1 1 4
1334 445 2 -0.35 63.8464671911155 178.53661044520302 25.797082369348523 1 1 4
446 149 2 -0.35 103.92223830209574 185.53941583491093 20.296702047929152 -7 4 -1
447 149 2 -0.35 105.23438359769081 184.76592970293675 18.54673235479343 -7 4 -1
445 149 1 0.7 104.57831094989326 185.15267276892382 19.421717201361293 -7 4 -1
496 166 1 0.7 131.28301047186272 176.93173289251712 24.83589079577695 0 6 -5
498 166 2 -0.35 131.40496262276278 176.0791551902727 25.612961535494367 0 6 -5
497 166 2 -0.35 131.1610583209627 177.7843105947615 24.05882005605953 0 6 -5
1418 473 2 -0.35 40.88900688377924 9.768796206157967 39.6317180375386 9 -3 -5
1417 473 1 0.7 41.86159105629382 9.159818945843886 39.461933692577944 9 -3 -5
1419 473 2 -0.35 42.8341752288084 8.550841685529806 39.2921493476173 9 -3 -5
660 220 2 -0.35 83.68011327796967 15.708390588861556 49.39388240493219 1 5 0
658 220 1 0.7 82.92501807948223 14.882236432959658 49.0890864864802 1 5 0
659 220 2 -0.35 82.16992288099479 14.056082277057758 48.784290568028204 1 5 0
1174 392 1 0.7 104.97049912587522 15.716307845608599 41.87250815750755 -1 3 3
1175 392 2 -0.35 104.61283829490777 16.762224150680154 41.5207442981111 -1 3 3
1176 392 2 -0.35 105.32815995684265 14.670391540537045 42.224272016904 -1 3 3
53 18 2 -0.35 154.97687899883744 3.716008523220274 44.07682522161781 -3 2 3
52 18 1 0.7 156.11799889380146 3.511415633714251 44.03698636017936 -3 2 3
54 18 2 -0.35 157.25911878876545 3.3068227442082274 43.997147498740915 -3 2 3
550 184 1 0.7 38.21103401991831 26.717145456581903 36.30014508759568 1 4 0
551 184 2 -0.35 38.705192340519055 25.79560420611687 36.80230968000598 1 4 0
552 184 2 -0.35 37.71687569931756 27.638686707046933 35.79798049518538 1 4 0
1420 474 1 0.7 121.3187467024619 25.048243475129794 50.561471571300785 1 -3 -2
1421 474 2 -0.35 121.96374006170575 25.838595786186712 50.009269804789525 1 -3 -2
1422 474 2 -0.35 120.67375334321804 24.257891164072877 51.113673337812045 1 -3 -2
167 56 2 -0.35 155.28321176541087 29.202202740666305 41.674287488409526 4 -2 4
168 56 2 -0.35 153.09904024920252 28.602333096210916 42.176234893470856 4 -2 4
166 56 1 0.7 154.19112600730668 28.90226791843861 41.92526119094019 4 -2 4
1374 458 2 -0.35 169.83107449343152 32.79867050409595 45.481323092363894 1 -1 5
1372 458 1 0.7 170.01190113492106 33.81678481113461 46.00700834375549 1 -1 5
1415 472 2 -0.35 37.58638687762164 52.867964330243424 48.001035885179625 6 11 -6
1088 363 2 -0.35 91.0829188214576 49.74589504802014 35.23576250586878 -2 -1 -6
929 310 2 -0.35 166.47573575033184 40.22011453569983 40.919694499374906 -4 0 -1
930 310 2 -0.35 168.04828989839652 41.64455328922104 39.98137275877894 -4 0 -1
928 310 1 0.7 167.26201282436418 40.932333912460436 40.45053362907692 -4 0 -1
1373 458 2 -0.35 170.19272777641063 34.83489911817326 46.53269359514708 1 -1 5
1414 472 1 0.7 38.69354540583057 52.57174390832342 47.822001097915795 6 11 -6
1416 472 2 -0.35 39.8007039340395 52.275523486403415 47.642966310651964 6 11 -6
305 102 2 -0.35 21.14164195166973 83.15441398975548 40.23278553819598 -9 -1 5
304 102 1 0.7 22.0576018597623 83.17539857191873 39.52132429956264 -9 -1 5
306 102 2 -0.35 22.97356176785487 83.196383154082 38.80986306092932 -9 -1 5
8 3 2 -0.35 42.7341234203712 78.60556552977248 42.995515930934395 -3 6 -5
9 3 2 -0.35 41.58361839121391 77.86263345735857 41.12287338264557 -3 6 -5
7 3 1 0.7 42.158870905792554 78.23409949356552 42.059194656789984 -3 6 -5
207 69 2 -0.35 39.52648712392502 80.65749847886487 44.892646229084555 -1 -5 0
205 69 1 0.7 38.84091865246844 81.24259622829238 45.622890362617895 -1 -5 0
206 69 2 -0.35 38.155350181011855 81.82769397771989 46.353134496151235 -1 -5 0
404 135 2 -0.35 140.11633515687677 83.19749223502039 37.8744000516119 2 4 -5
405 135 2 -0.35 138.15512324409676 81.97581888153576 38.08311528957487 2 4 -5
403 135 1 0.7 139.13572920048676 82.58665555827808 37.97875767059338 2 4 -5
492 164 2 -0.35 19.149354638456085 89.9441455196788 40.82527650219468 -5 2 -2
490 164 1 0.7 19.90639985272832 90.4100929906253 41.57051169853675 -5 2 -2
569 190 2 -0.35 28.57473392335805 91.52524920664919 36.82233918611528 4 -4 7
491 164 2 -0.35 20.663445067000556 90.87604046157179 42.31574689487881 -5 2 -2
568 190 1 0.7 27.661992636794388 91.12983473241073 37.419122846551524 4 -4 7
570 190 2 -0.35 26.749251350230722 90.73442025817226 38.01590650698777 4 -4 7
1198 400 1 0.7 37.43100843394633 103.58791813494882 49.69518097874385 -4 -2 1
1199 400 2 -0.35 37.4506359944912 103.01468105769165 48.686908192179885 -4 -2 1
573 191 2 -0.35 81.35225874961772 93.05979084138332 33.990760970854446 0 -1 -4
571 191 1 0.7 81.99809478051374 92.09836264341997 33.92632773908336 0 -1 -4
626 209 2 -0.35 125.98854383452199 98.0954053463249 43.47969661059322 2 -1 9
627 209 2 -0.35 127.63969555624674 96.57976734738219 42.88058105578317 2 -1 9
625 209 1 0.7 126.81411969538436 97.33758634685354 43.180138833188195 2 -1 9
1035 345 2 -0.35 175.51279658398553 98.13321292995573 38.67667737105519 3 -2 -5
1033 345 1 0.7 175.1429822855647 99.20240484565582 38.93293121411667 3 -2 -5
1034 345 2 -0.35 174.77316798714384 100.27159676135591 39.18918505717814 3 -2 -5
916 306 1 0.7 180.91236277447308 98.1697737522836 38.44065685584677 -3 7 2
918 306 2 -0.35 181.57272740032013 99.05532629410207 38.794655805857865 -3 7 2
917 306 2 -0.35 180.25199814862606 97.28422121046513 38.08665790583568 -3 7 2
388 130 1 0.7 51.215800607806905 106.66709865430917 35.527672270780776 3 1 -5
1200 400 2 -0.35 37.41138087340147 104.16115521220601 50.70345376530781 -4 -2 1
389 130 2 -0.35 52.19218642077765 106.18573706364836 35.928373859581555 3 1 -5
1463 488 2 -0.35 80.04206677763607 120.99217486875683 44.580414274948126 6 0 0
1462 488 1 0.7 80.69188148846368 121.44219837032465 43.73140326817154 6 0 0
1464 488 2 -0.35 81.34169619929128 121.89222187189246 42.882392261394955 6 0 0
1112 371 2 -0.35 92.6549942955466 121.13935743821405 45.59837188903386 6 2 -2
1111 371 1 0.7 92.22473182320124 121.01224513355486 44.52864450932613 6 2 -2
744 248 2 -0.35 8.857853482915747 138.04884389541087 44.798286884321946 -1 6 -3
742 248 1 0.7 8.513977501169537 138.07391829143856 43.69071269545766 -1 6 -3
1474 492 1 0.7 51.45761478401279 128.66009082491522 40.92150844390813 1 -1 -1
1475 492 2 -0.35 50.69621334073851 129.20477644789 40.236537339187294 1 -1 -1
1476 492 2 -0.35 52.21901622728707 128.11540520194043 41.60647954862897 1 -1 -1
1113 371 2 -0.35 91.79446935085588 120.88513282889566 43.4589171296184 6 2 -2
370 124 1 0.7 103.39502800001266 133.36449080057176 44.54846815791127 0 7 7
372 124 2 -0.35 102.38437241134093 132.9316174397404 44.17860881360618 0 7 7
371 124 2 -0.35 104.40568358868438 133.79736416140312 44.918327502216364 0 7 7
803 268 2 -0.35 166.80342390186635 134.85081371340448 35.202833402516774 2 0 -3
802 268 1 0.7 166.56263427774712 135.9741602251052 35.36318605003736 2 0 -3
804 268 2 -0.35 166.3218446536279 137.09750673680594 35.52353869755795 2 0 -3
743 248 2 -0.35 8.170101519423326 138.09899268746625 42.58313850659338 -1 6 -3
1140 380 2 -0.35 24.486865491209766 146.9373570934148 49.38917380649691 -1 1 4
1138 380 1 0.7 23.847175195225894 146.55912362763607 50.27986778906981 -1 1 4
1139 380 2 -0.35 23.207484899242026 146.18089016185738 51.17056177164271 -1 1 4
996 332 2 -0.35 93.69167738696044 141.4819443683234 48.601306224363455 3 4 4
994 332 1 0.7 93.25787621633116 140.40616471484228 48.59059727870776 3 4 4
995 332 2 -0.35 92.82407504570186 139.33038506136114 48.57988833305206 3 4 4
707 236 2 -0.35 108.60150774230446 151.78974510880977 47.10576143451763 5 2 4
706 236 1 0.7 108.5552006328315 152.88842102878706 47.475040291849886 5 2 4
708 236 2 -0.35 108.50889352335854 153.98709694876436 47.84431914918215 5 2 4
1388 463 2 -0.35 180.04876370965007 140.2776574912145 34.947998145091574 -10 7 -1
1065 355 2 -0.35 29.068798931834053 161.99903016836572 36.48402813135781 -2 4 4
1063 355 1 0.7 29.38593479869722 163.1022713004038 36.651012701089556 -2 4 4
1064 355 2 -0.35 29.703070665560386 164.20551243244185 36.8179972708213 -2 4 4
1491 497 2 -0.35 40.13427828540261 168.2468115071303 36.307300566751024 -1 -5 -1
1489 497 1 0.7 40.34513008368301 167.2410645584974 36.845459088449445 -1 -5 -1
1490 497 2 -0.35 40.55598188196341 166.23531760986452 37.38361761014787 -1 -5 -1
335 112 2 -0.35 74.06790161217465 165.87290249823093 42.00663416000097 2 5 3
334 112 1 0.7 74.95429157347633 166.57940150758157 42.25315390827601 2 5 3
336 112 2 -0.35 75.840681534778 167.2859005169322 42.49967365655105 2 5 3
1094 365 2 -0.35 86.27679502300326 168.10978100693194 44.43952381627582 0 2 3
1093 365 1 0.7 85.56548410734902 167.89451932961447 43.54885036795195 0 2 3
1095 365 2 -0.35 84.85417319169478 167.679257652297 42.658176919628076 0 2 3
699 233 2 -0.35 173.9645746310419 159.24962140863 51.56615783831861 6 -4 -1
401 134 2 -0.35 120.03271648134557 173.66775926024468 46.03024911555672 -4 -5 -2
400 134 1 0.7 120.47349779301389 174.570446656025 45.450191100542156 -4 -5 -2
402 134 2 -0.35 120.91427910468221 175.47313405180535 44.870133085527584 -4 -5 -2
828 276 2 -0.35 171.95106367147218 177.6845083321971 35.73103977996523 -4 2 -4
826 276 1 0.7 171.01651381382757 178.36832041600968 35.798992687239256 -4 2 -4
827 276 2 -0.35 170.08196395618293 179.05213249982225 35.86694559451328 -4 2 -4
588 196 2 -0.35 159.75387179608984 5.222774312686811 56.39174553508971 6 -3 0
587 196 2 -0.35 161.83368089630395 5.921643152258167 55.6378380793984 6 -3 0
586 196 1 0.7 160.7937763461969 5.57220873247249 56.01479180724405 6 -3 0
1023 341 2 -0.35 81.59001940934891 24.16788655038622 64.49743135838986 1 12 4
1021 341 1 0.7 81.18420926005695 23.132206049931266 64.826496737467 1 12 4
1022 341 2 -0.35 80.778399110765 22.096525549476315 65.15556211654413 1 12 4
1399 467 1 0.7 85.15478509398714 18.893699797288864 63.975053273667136 -2 1 0
1401 467 2 -0.35 86.0467895256049 19.444277231187836 63.47827104446175 -2 1 0