LAMMPS (29 Aug 2024 - Update 1)
  using 1 OpenMP thread(s) per MPI task
package gpu 1 gpuID 0
# GCMC for CO2 molecular fluid, rigid/small/nvt dynamics
# Rigid CO2 TraPPE model
# [Potoff and J.I. Siepmann, Vapor-liquid equilibria of
# mixtures containing alkanes, carbon dioxide and
# nitrogen AIChE J., 47,1676-1682 (2001)].

# global model settings

units           real
atom_style      full
boundary        p p p
pair_style      lj/cut/coul/long  12
pair_modify     mix arithmetic shift yes
kspace_style    pppm 1.0e-4
bond_style      harmonic
angle_style     harmonic
neigh_modify    one 4000

# box, start molecules on simple cubic lattice
region          mbox block 0 ${lbox} 0 ${lbox} 0 ${lbox} units box
region          mbox block 0 189 0 ${lbox} 0 ${lbox} units box
region          mbox block 0 189 0 189 0 ${lbox} units box
region          mbox block 0 189 0 189 0 189 units box
create_box      2 mbox                                       bond/types 1                                angle/types 1                               extra/bond/per/atom 2                       extra/angle/per/atom 1                      extra/special/per/atom 2
Created orthogonal box = (0 0 0) to (189 189 189)
  1 by 1 by 1 MPI processor grid
molecule        co2mol ../CO2.txt
Read molecule template co2mol:
# CO2 molecule file. TraPPE model.
  1 molecules
  0 fragments
  3 atoms with max type 2
  2 bonds with max type 1
  1 angles with max type 1
  0 dihedrals with max type 0
  0 impropers with max type 0
create_atoms   	0 random ${nmols} 34578 mbox mol co2mol 464563 overlap 1.2
create_atoms   	0 random 500 34578 mbox mol co2mol 464563 overlap 1.2
Created 1500 atoms
  using lattice units in orthogonal box = (0 0 0) to (189 189 189)
  create_atoms CPU = 0.013 seconds

# rigid CO2 TraPPE model

pair_coeff      1   1  0.053649   2.800
pair_coeff      2   2  0.156973   3.050
bond_coeff      1       0       1.16
angle_coeff     1       0       180

# masses

mass 1 12.0107
mass 2 15.9994

write_data init_conf.data  pair ij
System init for write_data ...
PPPM initialization ...
  using 12-bit tables for long-range coulomb (src/kspace.cpp:342)
  G vector (1/distance) = 0.15699891
  grid = 36 36 36
  stencil order = 5
  estimated absolute RMS force accuracy = 0.028458409
  estimated relative force accuracy = 8.5701652e-05
  using double precision FFTW3
  3d grid and FFT values/proc = 68921 46656
Generated 1 of 1 mixed pair_coeff terms from arithmetic mixing rule

# MD settings

group           co2 type 1 2
1500 atoms in group co2
velocity       	all create 300 54654
timestep        0.25

# rigid constraints with thermostat
fix             myrigidnvt co2 rigid/nvt molecule temp 300 300 $(100*dt)
fix             myrigidnvt co2 rigid/nvt molecule temp 300 300 25
  500 rigid bodies with 1500 atoms

thermo 1000
thermo_style custom step temp density press ke pe etotal


variable    mvol equal vol
variable    mden equal density
variable	mtmp equal temp
variable    mpre equal press

fix mydat all ave/time 1 4000 4000 v_mtmp v_mden v_mpre file statistics.dat ## every 1ps

run 4000000 ## 1ns

CITE-CITE-CITE-CITE-CITE-CITE-CITE-CITE-CITE-CITE-CITE-CITE-CITE

Your simulation uses code contributions which should be cited:

- GPU package (short-range, long-range and three-body potentials): doi:10.1016/j.cpc.2010.12.021, doi:10.1016/j.cpc.2011.10.012, doi:10.1016/j.cpc.2013.08.002, doi:10.1016/j.commatsci.2014.10.068, doi:10.1016/j.cpc.2016.10.020, doi:10.3233/APC200086

@Article{Brown11,
 author = {W. M. Brown and P. Wang and S. J. Plimpton and A. N. Tharrington},
 title = {Implementing Molecular Dynamics on Hybrid High Performance Computers---Short Range Forces},
 journal = {Comput.\ Phys.\ Commun.},
 year =    2011,
 volume =  182,
 pages =   {898--911},
 doi =     {10.1016/j.cpc.2010.12.021}
}

@Article{Brown12,
 author = {W. M. Brown and A. Kohlmeyer and S. J. Plimpton and A. N. Tharrington},
 title = {Implementing Molecular Dynamics on Hybrid High Performance Computers - Particle-Particle Particle-Mesh},
 journal = {Comput.\ Phys.\ Commun.},
 year =    2012,
 volume =  183,
 doi =     {10.1016/j.cpc.2011.10.012},
 pages =   {449--459}
}

@Article{Brown13,
 author = {W. M. Brown and Y. Masako},
 title = {Implementing Molecular Dynamics on Hybrid High Performance Computers---Three-Body Potentials},
 journal = {Comput.\ Phys.\ Commun.},
 year =    2013,
 volume =  184,
 pages =   {2785--2793},
 doi =     {10.1016/j.cpc.2013.08.002},
}

@Article{Trung15,
 author = {T. D. Nguyen and S. J. Plimpton},
 title = {Accelerating Dissipative Particle Dynamics Simulations for Soft Matter Systems},
 journal = {Comput.\ Mater.\ Sci.},
 year =    2015,
 doi =     {10.1016/j.commatsci.2014.10.068},
 volume =  100,
 pages =   {173--180}
}

@Article{Trung17,
 author = {T. D. Nguyen},
 title = {{GPU}-Accelerated {T}ersoff Potentials for Massively Parallel
    Molecular Dynamics Simulations},
 journal = {Comput.\ Phys.\ Commun.},
 year =    2017,
 doi =     {10.1016/j.cpc.2016.10.020},
 volume =  212,
 pages =   {113--122}
}

@inproceedings{Nikolskiy19,
 author = {V. Nikolskiy and V. Stegailov},
 title = {{GPU} Acceleration of Four-Site Water Models in {LAMMPS}},
 booktitle = {Proceedings of the International Conference on Parallel
    Computing (ParCo 2019), Prague, Czech Republic},
 doi =     {10.3233/APC200086},
 year =    2019
}

CITE-CITE-CITE-CITE-CITE-CITE-CITE-CITE-CITE-CITE-CITE-CITE-CITE

PPPM initialization ...
  using 12-bit tables for long-range coulomb (src/kspace.cpp:342)
  G vector (1/distance) = 0.15699891
  grid = 36 36 36
  stencil order = 5
  estimated absolute RMS force accuracy = 0.028458409
  estimated relative force accuracy = 8.5701652e-05
  using double precision FFTW3
  3d grid and FFT values/proc = 68921 46656
Generated 1 of 1 mixed pair_coeff terms from arithmetic mixing rule
Per MPI rank memory allocation (min/avg/max) = 14.01 | 14.01 | 14.01 Mbytes
   Step          Temp         Density         Press          KinEng         PotEng         TotEng    
         0   306.91746      0.0054122779   33.228834      761.47069      21502.729      22264.2      
      1000   315.64214      0.0054122779   5.7234664      783.11685     -4.6079518      778.5089     
      2000   303.96614      0.0054122779   1.8109818      754.14838     -8.1975986      745.95078    
      3000   301.84904      0.0054122779   0.33424513     748.89578     -10.024185      738.8716     
      4000   287.06528      0.0054122779   3.2157095      712.21687     -9.1574969      703.05938    
      5000   305.95733      0.0054122779   2.8255965      759.08858     -11.359291      747.72929    
      6000   315.10948      0.0054122779   3.3103957      781.79531     -10.820739      770.97457    
      7000   299.98779      0.0054122779   3.0224002      744.27797     -11.003299      733.27467    
      8000   300.25756      0.0054122779   2.8232572      744.94728     -11.026363      733.92092    
      9000   303.16864      0.0054122779   3.2762012      752.16974     -12.787323      739.38242    
     10000   302.94374      0.0054122779   3.7655149      751.61178     -13.952806      737.65897    
     11000   302.42993      0.0054122779   3.1328537      750.33699     -17.964192      732.3728     
     12000   306.51385      0.0054122779   2.7391058      760.4693      -22.122049      738.34725    
     13000   300.71499      0.0054122779   2.9983466      746.08218     -23.332231      722.74995    
     14000   304.17238      0.0054122779   4.0214351      754.66006     -25.209183      729.45088    
     15000   307.70537      0.0054122779   3.0250375      763.42551     -24.161523      739.26398    
     16000   300.51374      0.0054122779   1.1965956      745.58288     -26.655457      718.92743    
     17000   306.35335      0.0054122779   3.1873682      760.07111     -25.248727      734.82238    
     18000   298.47315      0.0054122779   5.819056       740.52012     -21.375385      719.14474    
     19000   313.83189      0.0054122779  -0.93830927     778.62557     -22.540421      756.08514    
     20000   294.53253      0.0054122779   2.7207917      730.74334     -23.680904      707.06243    
     21000   307.13405      0.0054122779   4.9430532      762.00805     -26.177326      735.83072    
     22000   303.53494      0.0054122779   1.9396772      753.07855     -26.002264      727.07628    
     23000   284.76215      0.0054122779   0.26759832     706.50275     -24.756433      681.74632    
     24000   290.64002      0.0054122779   4.9682741      721.08591     -25.80554       695.28037    
     25000   311.25784      0.0054122779   0.49377236     772.23929     -27.482621      744.75667    
     26000   297.85835      0.0054122779   2.8449315      738.99478     -25.843528      713.15125    
     27000   297.78683      0.0054122779   1.5117017      738.81734     -26.909828      711.90751    
     28000   305.48046      0.0054122779   3.0192089      757.90544     -28.981241      728.9242     
     29000   310.16548      0.0054122779   2.9767593      769.52911     -28.434379      741.09474    
     30000   300.3173       0.0054122779   2.8884678      745.09549     -30.152254      714.94324    
     31000   292.26867      0.0054122779   2.9559612      725.12662     -29.105957      696.02066    
     32000   296.28399      0.0054122779   3.1386541      735.08875     -34.020873      701.06788    
     33000   320.85722      0.0054122779   3.2201836      796.0556      -31.266229      764.78937    
     34000   297.63623      0.0054122779   2.55881        738.44368     -32.693825      705.74985    
     35000   287.96744      0.0054122779   3.0091644      714.45517     -32.551752      681.90342    
     36000   295.6984       0.0054122779   1.4539974      733.63588     -35.153595      698.48228    
     37000   305.96953      0.0054122779   3.8366425      759.11884     -36.288709      722.83013    
     38000   290.33454      0.0054122779   4.1600503      720.32799     -35.910435      684.41756    
     39000   295.43336      0.0054122779   2.743691       732.97832     -37.844752      695.13357    
     40000   310.23937      0.0054122779   3.4046956      769.71244     -40.064242      729.6482     
     41000   309.9365       0.0054122779   3.2223941      768.96099     -34.538613      734.42238    
     42000   307.48943      0.0054122779   0.28802205     762.88975     -34.615626      728.27412    
     43000   293.82047      0.0054122779   2.5901263      728.97668     -39.220686      689.75599    
     44000   301.50056      0.0054122779   2.7832195      748.0312      -38.46034       709.57086    
     45000   309.20238      0.0054122779   3.1524985      767.13962     -39.277693      727.86193    
     46000   299.56542      0.0054122779   2.4322452      743.23008     -37.508598      705.72148    
     47000   293.86914      0.0054122779   3.1771951      729.09745     -38.320343      690.7771     
     48000   303.77917      0.0054122779   5.2163279      753.68448     -38.299494      715.38499    
     49000   297.9381       0.0054122779  -2.473828       739.19265     -39.680018      699.51263    
     50000   291.1374       0.0054122779   4.8196414      722.31992     -45.026573      677.29335    
     51000   304.59646      0.0054122779   3.7067792      755.71221     -44.58859       711.12362    
     52000   302.00463      0.0054122779   2.6778913      749.28182     -46.518658      702.76316    
     53000   319.92392      0.0054122779  -0.035246005    793.74006     -52.206506      741.53355    
     54000   300.1786       0.0054122779   4.4631395      744.75139     -51.751752      692.99964    
     55000   289.57915      0.0054122779   3.788834       718.45386     -53.624477      664.82938    
     56000   304.47831      0.0054122779   1.4282909      755.41909     -56.13816       699.28093    
     57000   303.82459      0.0054122779   2.9847582      753.79719     -49.746362      704.05083    
     58000   318.74244      0.0054122779   4.7495444      790.80878     -53.194542      737.61423    
     59000   291.65253      0.0054122779   3.2817617      723.59796     -52.937121      670.66084    
     60000   297.95754      0.0054122779   2.9027342      739.24087     -49.737781      689.50309    
     61000   285.11001      0.0054122779   2.9481074      707.36579     -52.33495       655.03084    
     62000   318.28908      0.0054122779   2.4966013      789.68398     -52.68249       737.00149    
     63000   307.31302      0.0054122779   2.7117385      762.45207     -53.183227      709.26885    
     64000   299.23624      0.0054122779   2.4645774      742.41337     -53.266977      689.14639    
     65000   296.37637      0.0054122779   3.928168       735.31795     -50.108325      685.20962    
     66000   303.47021      0.0054122779   3.0547712      752.91795     -57.1895        695.72845    
     67000   304.32887      0.0054122779   2.8493913      755.04832     -47.657544      707.39078    
     68000   304.90055      0.0054122779   2.9184867      756.46666     -51.812011      704.65465    
     69000   294.7668       0.0054122779   4.3339362      731.32454     -52.46999       678.85455    
     70000   304.1403       0.0054122779   2.2231583      754.58046     -55.253373      699.32709    
     71000   299.92461      0.0054122779   3.4706177      744.12123     -58.149518      685.97171    
     72000   297.69753      0.0054122779   2.4686364      738.59579     -61.725191      676.8706     
     73000   312.24459      0.0054122779   2.9778783      774.68743     -57.395057      717.29238    
     74000   289.36284      0.0054122779   2.1314441      717.91717     -56.444851      661.47232    
     75000   296.00473      0.0054122779  -0.58796864     734.39588     -56.891548      677.50434    
     76000   299.15032      0.0054122779   6.0648638      742.20019     -54.404182      687.796      
     77000   310.10588      0.0054122779   3.0285876      769.38125     -55.163324      714.21792    
     78000   298.69212      0.0054122779   5.4112268      741.06339     -57.131287      683.9321     
     79000   300.38455      0.0054122779   2.512535       745.26235     -60.261872      685.00048    
     80000   303.3862       0.0054122779   2.505744       752.70952     -54.733608      697.97591    
     81000   296.60284      0.0054122779   6.3762247      735.87982     -57.803646      678.07617    
     82000   304.12481      0.0054122779   3.5831963      754.54203     -56.168997      698.37303    
     83000   291.23355      0.0054122779   2.7565005      722.55846     -56.446589      666.11187    
     84000   300.59222      0.0054122779   3.6214513      745.77759     -59.88108       685.89651    
     85000   305.59841      0.0054122779   3.7740163      758.19809     -57.947331      700.25076    
     86000   305.69782      0.0054122779   2.7315688      758.44472     -59.375756      699.06896    
     87000   301.21053      0.0054122779   0.34168192     747.31163     -63.139028      684.1726     
     88000   300.36669      0.0054122779   2.6358515      745.21803     -61.980617      683.23741    
     89000   292.32625      0.0054122779   6.4830097      725.26948     -57.98939       667.28009    
     90000   312.90026      0.0054122779   0.47926761     776.31418     -59.94387       716.37031    
     91000   306.08382      0.0054122779   4.656571       759.4024      -61.776196      697.6262     
     92000   294.94228      0.0054122779   3.6830204      731.75993     -60.63167       671.12826    
     93000   294.52911      0.0054122779  -0.19058947     730.73483     -58.471751      672.26308    
     94000   318.31016      0.0054122779  -3.2502327      789.73629     -58.791711      730.94458    
     95000   306.16343      0.0054122779   5.0002997      759.59991     -62.934691      696.66522    
     96000   282.93741      0.0054122779   1.8238181      701.97552     -61.29852       640.677      
     97000   306.23239      0.0054122779   1.1357315      759.77101     -60.680572      699.09044    
     98000   314.13152      0.0054122779   3.1935541      779.36897     -58.312416      721.05655    
     99000   294.71196      0.0054122779   2.951045       731.1885      -64.18182       667.00668    
    100000   290.10129      0.0054122779   2.6082569      719.74929     -61.975315      657.77397    
    101000   303.19956      0.0054122779   2.7966391      752.24646     -62.139965      690.1065     
    102000   295.96425      0.0054122779   6.0502241      734.29547     -64.164727      670.13075    
    103000   297.19282      0.0054122779   2.8970562      737.34359     -66.99458       670.34901    
    104000   304.50557      0.0054122779   2.5096027      755.4867      -61.759249      693.72746    
    105000   295.83158      0.0054122779   4.4200617      733.96632     -64.051169      669.91515    
    106000   303.15341      0.0054122779   3.2838936      752.13197     -62.960951      689.17101    
    107000   304.54059      0.0054122779   2.7875086      755.57359     -62.849197      692.72439    
    108000   297.0205       0.0054122779   3.5064579      736.91605     -58.910833      678.00521    
    109000   309.46279      0.0054122779   1.2736122      767.78572     -62.552917      705.2328     
    110000   290.85761      0.0054122779   1.1010004      721.62574     -61.288688      660.33706    
    111000   296.13852      0.0054122779   2.9066492      734.72783     -63.464083      671.26375    
    112000   317.95438      0.0054122779   4.761515       788.85359     -66.324436      722.52915    
    113000   303.89736      0.0054122779   3.9304975      753.97772     -69.815478      684.16224    
    114000   292.08936      0.0054122779  -2.1717923      724.68176     -69.563734      655.11803    
    115000   300.59836      0.0054122779   3.6759354      745.79282     -64.9925        680.80032    
    116000   305.52434      0.0054122779   3.0042188      758.0143      -65.948143      692.06616    
    117000   295.84959      0.0054122779   3.2854382      734.01098     -63.202545      670.80843    
    118000   297.58527      0.0054122779   3.2587593      738.31726     -61.294277      677.02298    
    119000   302.31571      0.0054122779   3.3631683      750.05361     -67.080157      682.97345    
    120000   301.82944      0.0054122779  -0.48298338     748.84717     -67.802138      681.04503    
    121000   299.89284      0.0054122779   4.7812377      744.04239     -67.038114      677.00428    
    122000   303.23531      0.0054122779   5.0532848      752.33516     -67.684292      684.65087    
    123000   301.62318      0.0054122779   3.7173536      748.33542     -69.716222      678.61919    
    124000   287.67456      0.0054122779   1.3047239      713.72852     -73.024938      640.70358    
    125000   296.01343      0.0054122779   3.9261864      734.41748     -71.998781      662.41869    
    126000   295.86382      0.0054122779   4.3718777      734.04628     -64.154217      669.89207    
    127000   299.92703      0.0054122779   3.0331916      744.12724     -64.044892      680.08234    
    128000   310.87843      0.0054122779   2.8324148      771.29796     -65.369676      705.92828    
    129000   298.63509      0.0054122779   2.3370729      740.92188     -67.011398      673.91048    
    130000   289.24518      0.0054122779   2.875953       717.62525     -66.950246      650.67501    
    131000   301.14257      0.0054122779   3.1315442      747.14302     -68.904039      678.23898    
    132000   304.50175      0.0054122779   3.8364557      755.47724     -70.917019      684.56023    
    133000   283.88247      0.0054122779   2.1688206      704.32023     -64.486843      639.83339    
    134000   298.60428      0.0054122779   2.7620662      740.84545     -67.732439      673.11301    
    135000   305.95809      0.0054122779   4.2464782      759.09046     -68.104679      690.98578    
    136000   299.16613      0.0054122779   2.9610101      742.23941     -62.633638      679.60577    
    137000   304.75319      0.0054122779   1.9023259      756.10106     -66.103536      689.99753    
    138000   308.07121      0.0054122779   6.8161143      764.33317     -67.776169      696.557      
    139000   287.54437      0.0054122779   2.9210398      713.4055      -67.079123      646.32638    
    140000   306.82407      0.0054122779   2.0245502      761.23897     -66.046198      695.19278    
    141000   313.16105      0.0054122779   3.2960382      776.96119     -67.265726      709.69546    
    142000   279.98902      0.0054122779   3.1640273      694.66047     -64.260896      630.39957    
    143000   296.51473      0.0054122779   1.5974631      735.66122     -70.205533      665.45568    
    144000   316.59905      0.0054122779   3.1250421      785.49097     -71.470795      714.02018    
    145000   304.24678      0.0054122779   3.2138095      754.84465     -68.571007      686.27364    
    146000   286.06604      0.0054122779   2.7118438      709.73773     -72.557933      637.1798     
    147000   296.56386      0.0054122779   2.5971508      735.78311     -69.522088      666.26102    
    148000   320.68058      0.0054122779   2.5344742      795.61735     -69.009433      726.60791    
    149000   309.26609      0.0054122779   3.2958412      767.29769     -71.335335      695.96235    
    150000   290.9955       0.0054122779   2.5046075      721.96786     -69.619885      652.34797    
    151000   295.59594      0.0054122779   1.943407       733.38168     -67.692932      665.68875    
    152000   311.26279      0.0054122779   3.0171171      772.25157     -69.03259       703.21898    
    153000   292.95796      0.0054122779   1.9600042      726.83678     -67.215671      659.6211     
    154000   302.97771      0.0054122779   1.0305088      751.69604     -66.198444      685.49759    
    155000   299.26089      0.0054122779   3.0860281      742.47452     -68.633602      673.84092    
    156000   306.49417      0.0054122779   3.3953815      760.42049     -71.205548      689.21494    
    157000   291.49437      0.0054122779   2.3623298      723.20556     -66.913513      656.29204    
    158000   289.79948      0.0054122779   4.3992645      719.00051     -59.812118      659.18839    
    159000   296.78449      0.0054122779   3.2481989      736.3305      -64.210396      672.1201     
    160000   294.24441      0.0054122779   2.2433216      730.02849     -68.098742      661.92975    
    161000   293.41516      0.0054122779   6.1665259      727.97109     -70.168908      657.80218    
    162000   316.34362      0.0054122779   3.7331694      784.85723     -63.699744      721.15749    
    163000   303.8804       0.0054122779   2.5711019      753.93564     -66.985958      686.94968    
    164000   289.08595      0.0054122779   0.89987127     717.23021     -69.229608      648.00061    
    165000   294.15615      0.0054122779   2.1476202      729.80953     -66.050475      663.75905    
    166000   318.51548      0.0054122779   3.153748       790.24567     -70.079654      720.16602    
    167000   301.60009      0.0054122779   3.8803662      748.27813     -67.772745      680.50538    
    168000   289.01515      0.0054122779   2.7599836      717.05455     -67.644446      649.4101     
    169000   300.34056      0.0054122779   2.4996477      745.1532      -64.124375      681.02882    
    170000   320.01881      0.0054122779   3.2443286      793.97549     -63.105971      730.86952    
    171000   309.38758      0.0054122779   3.0490848      767.59912     -64.298433      703.30069    
    172000   292.06753      0.0054122779   3.8323969      724.6276      -67.570382      657.05722    
    173000   282.63316      0.0054122779   4.8240696      701.22066     -67.495029      633.72563    
    174000   306.94003      0.0054122779   1.0611871      761.52666     -70.83782       690.68884    
    175000   306.79829      0.0054122779   6.5162192      761.17502     -69.246384      691.92863    
    176000   290.42564      0.0054122779   2.0727689      720.55402     -62.663693      657.89033    
    177000   297.40037      0.0054122779   1.3512915      737.8585      -66.199441      671.65906    
    178000   309.93753      0.0054122779   3.239661       768.96354     -71.007669      697.95588    
    179000   303.91332      0.0054122779   8.3686752      754.01733     -68.501224      685.51611    
    180000   290.64477      0.0054122779   1.7276506      721.09769     -68.247307      652.85038    
    181000   304.42463      0.0054122779   2.3866205      755.28589     -71.632663      683.65323    
    182000   298.60785      0.0054122779   4.3290203      740.8543      -67.173936      673.68037    
    183000   299.68942      0.0054122779   3.0185579      743.53771     -63.343669      680.19405    
    184000   273.66321      0.0054122779   3.8750118      678.96598     -50.838135      628.12784    
    185000   312.94769      0.0054122779   4.3046935      776.43186     -66.234082      710.19777    
    186000   303.52854      0.0054122779   3.1988642      753.06267     -68.361333      684.70133    
    187000   292.81913      0.0054122779   2.8552168      726.49234     -65.905872      660.58647    
    188000   312.11411      0.0054122779   4.9178027      774.3637      -62.756509      711.60719    
    189000   310.52936      0.0054122779   1.1785597      770.43191     -65.821876      704.61003    
    190000   286.4842       0.0054122779   2.0375324      710.7752      -62.798999      647.9762     
    191000   287.16072      0.0054122779   2.2915509      712.45365     -66.636752      645.8169     
    192000   302.47156      0.0054122779   4.0856409      750.44029     -69.582385      680.8579     
    193000   307.22542      0.0054122779   2.9017772      762.23473     -65.364918      696.86981    
    194000   290.57142      0.0054122779   8.6025935      720.91571     -65.299126      655.61659    
    195000   299.16987      0.0054122779   1.5991943      742.24869     -70.873769      671.37492    
    196000   311.27037      0.0054122779  -1.6204568      772.27038     -69.701419      702.56896    
    197000   311.5639       0.0054122779   3.9816079      772.99864     -71.237577      701.76106    
    198000   286.95968      0.0054122779   8.8406646      711.95488     -72.106441      639.84843    
    199000   296.15133      0.0054122779   1.0655483      734.75963     -71.918203      662.84142    
    200000   305.53908      0.0054122779   1.2028021      758.05089     -68.968633      689.08225    
    201000   305.05067      0.0054122779   5.754272       756.83912     -69.347999      687.49112    
    202000   302.73296      0.0054122779   3.0955344      751.08881     -64.99615       686.09266    
    203000   307.07875      0.0054122779   1.6619246      761.87085     -64.626834      697.24402    
    204000   302.70436      0.0054122779   2.7867425      751.01787     -63.490275      687.5276     
    205000   297.74804      0.0054122779   3.6641825      738.72109     -62.009718      676.71137    
    206000   295.30247      0.0054122779   1.3189268      732.65357     -59.144194      673.50938    
    207000   305.47692      0.0054122779   2.818174       757.89666     -63.219356      694.6773     
    208000   307.71842      0.0054122779   3.8174108      763.45787     -65.98959       697.46828    
    209000   277.64443      0.0054122779   3.5942691      688.84348     -70.633772      618.20971    
    210000   297.91465      0.0054122779   1.7548227      739.13445     -69.100162      670.03429    
    211000   308.39682      0.0054122779   2.9090206      765.14101     -66.33969       698.80132    
    212000   305.74206      0.0054122779   3.6143993      758.55447     -63.312488      695.24198    
    213000   296.71905      0.0054122779   2.6787962      736.16814     -68.176185      667.99196    
    214000   293.22385      0.0054122779   2.7121041      727.49646     -71.841617      655.65484    
    215000   303.06926      0.0054122779   3.1561642      751.92319     -67.877683      684.04551    
    216000   301.94591      0.0054122779   2.1055756      749.13612     -66.507442      682.62868    
    217000   294.18404      0.0054122779   1.4891764      729.87872     -69.441918      660.4368     
    218000   298.45042      0.0054122779   3.3777404      740.46372     -68.778339      671.68538    
    219000   311.20316      0.0054122779   3.0055877      772.10363     -68.194176      703.90945    
    220000   298.46768      0.0054122779   2.4971049      740.50653     -67.518629      672.9879     
    221000   299.81806      0.0054122779   3.7918792      743.85687     -66.450139      677.40673    
    222000   297.80974      0.0054122779   3.5766179      738.87416     -68.515672      670.35849    
    223000   293.59143      0.0054122779   0.80837232     728.40844     -67.136788      661.27165    
    224000   290.95792      0.0054122779   4.1818481      721.87463     -67.420357      654.45427    
    225000   301.18062      0.0054122779   5.0711745      747.23742     -69.275686      677.96174    
    226000   298.68596      0.0054122779   2.2530916      741.0481      -64.328621      676.71948    
    227000   296.04792      0.0054122779   2.9734478      734.50304     -61.828742      672.6743     
    228000   303.7724       0.0054122779   4.4061266      753.6677      -61.840885      691.82682    
    229000   302.0958       0.0054122779   2.4796034      749.508       -62.299565      687.20844    
    230000   295.99089      0.0054122779   2.4144573      734.36156     -60.83887       673.52269    
    231000   292.18629      0.0054122779   0.10935842     724.92224     -60.614661      664.30758    
    232000   289.91586      0.0054122779  -1.5340561      719.28923     -66.599542      652.68969    
    233000   307.47558      0.0054122779   5.0455861      762.8554      -68.956888      693.89851    
    234000   310.9264       0.0054122779   1.1991493      771.41698     -63.185832      708.23115    
    235000   297.40517      0.0054122779   3.1873905      737.87042     -62.466823      675.4036     
    236000   288.98039      0.0054122779   2.3639716      716.96832     -64.623127      652.34519    
    237000   310.79117      0.0054122779   3.2062478      771.08146     -63.844624      707.23684    
    238000   320.21682      0.0054122779   4.3494068      794.46677     -62.026517      732.44025    
    239000   297.01707      0.0054122779   4.0632548      736.90754     -65.089551      671.81799    
    240000   294.97236      0.0054122779  -2.7630446      731.83454     -66.321757      665.51279    
    241000   307.85802      0.0054122779   3.150416       763.80425     -70.181828      693.62242    
    242000   297.86703      0.0054122779   5.1414877      739.01631     -69.503374      669.51293    
    243000   295.64505      0.0054122779   1.5613961      733.50351     -66.241701      667.26181    
    244000   321.64256      0.0054122779   0.076782132    798.00406     -67.813355      730.19071    
    245000   305.07861      0.0054122779   3.3719217      756.90845     -62.74954       694.15891    
    246000   284.65185      0.0054122779   3.9656003      706.22908     -63.856168      642.37291    
    247000   294.24753      0.0054122779   3.1150417      730.03624     -62.998563      667.03767    
    248000   305.55045      0.0054122779   2.1065203      758.07909     -61.706923      696.37216    
    249000   303.08325      0.0054122779   1.7219884      751.9579      -64.016325      687.94158    
    250000   300.26308      0.0054122779   5.2268629      744.96099     -64.177781      680.7832     
    251000   282.11854      0.0054122779   3.4636664      699.94387     -65.193018      634.75085    
    252000   296.65107      0.0054122779   1.1407559      735.99947     -65.509411      670.49006    
    253000   309.45534      0.0054122779   0.16228297     767.76724     -66.459687      701.30755    
    254000   310.70505      0.0054122779   3.6622876      770.86781     -65.051684      705.81612    
    255000   293.12341      0.0054122779   3.109324       727.24725     -58.645193      668.60205    
    256000   301.82458      0.0054122779   2.8466985      748.8351      -63.274225      685.56088    
    257000   308.24055      0.0054122779   3.0291471      764.75329     -61.718227      703.03506    
    258000   305.1028       0.0054122779   3.1818354      756.96846     -59.309636      697.65883    
    259000   284.82631      0.0054122779   3.6142337      706.66193     -60.777427      645.8845     
    260000   296.51097      0.0054122779   2.2520731      735.6519      -61.317926      674.33398    
    261000   309.77055      0.0054122779   2.7492444      768.54927     -60.942989      707.60628    
    262000   306.25826      0.0054122779   3.0077018      759.83519     -58.624444      701.21075    
    263000   295.91388      0.0054122779   4.3968319      734.1705      -58.654267      675.51623    
    264000   293.38881      0.0054122779   2.8622733      727.90571     -61.027417      666.8783     
    265000   292.78573      0.0054122779   3.7436111      726.40946     -56.397869      670.01159    
    266000   296.71268      0.0054122779   2.4400672      736.15235     -54.613795      681.53855    
    267000   305.64502      0.0054122779   2.6166155      758.31372     -53.282732      705.03098    
    268000   288.23591      0.0054122779   6.4056559      715.12124     -57.072781      658.04846    
    269000   292.6793       0.0054122779   2.3960713      726.1454      -54.443201      671.7022     
    270000   326.74611      0.0054122779   2.4358234      810.66612     -60.112219      750.5539     
    271000   292.00288      0.0054122779   3.3521557      724.4672      -60.313797      664.15341    
    272000   299.89588      0.0054122779   2.4614416      744.04994     -60.864788      683.18515    
    273000   304.4886       0.0054122779   4.0060687      755.44461     -62.35155       693.09306    
    274000   285.91992      0.0054122779   3.0106578      709.37521     -60.155279      649.21993    
    275000   297.8887       0.0054122779   2.8152217      739.07007     -59.728793      679.34128    
    276000   304.37828      0.0054122779   1.9373453      755.17089     -63.029415      692.14148    
    277000   311.23048      0.0054122779   3.3041429      772.17139     -60.5088        711.66259    
    278000   296.32131      0.0054122779   2.6919411      735.18133     -64.405903      670.77543    
    279000   295.12041      0.0054122779   2.3710276      732.20187     -60.402617      671.79925    
    280000   305.13895      0.0054122779   3.7265778      757.05814     -60.773279      696.28486    
    281000   304.02386      0.0054122779   3.5492793      754.29157     -62.760594      691.53098    
    282000   305.12315      0.0054122779   2.6494369      757.01895     -61.202321      695.81662    
    283000   301.82686      0.0054122779   2.5439957      748.84075     -61.760612      687.08014    
    284000   293.4695       0.0054122779   4.5718406      728.10591     -64.47178       663.63413    
    285000   299.53998      0.0054122779   2.5335953      743.16696     -62.412266      680.75469    
    286000   293.892        0.0054122779   2.8211505      729.15416     -66.212319      662.94184    
    287000   313.72786      0.0054122779   1.3854461      778.36747     -64.348216      714.01926    
    288000   302.98375      0.0054122779   2.9778246      751.71105     -62.760214      688.95083    
    289000   295.90624      0.0054122779   2.647028       734.15153     -64.735526      669.416      
    290000   312.42918      0.0054122779   1.9784466      775.14542     -65.944573      709.20084    
    291000   287.24592      0.0054122779   1.2152076      712.66503     -67.20322       645.46181    
    292000   296.82109      0.0054122779   2.3159477      736.42131     -68.074858      668.34645    
    293000   300.66703      0.0054122779   2.7519406      745.96319     -65.775074      680.18811    
    294000   297.26784      0.0054122779   2.8889047      737.52972     -66.103962      671.42575    
    295000   304.7424       0.0054122779   2.1557335      756.0743      -63.183444      692.89086    
    296000   289.9471       0.0054122779   1.9794202      719.36674     -63.858524      655.50822    
    297000   297.11682      0.0054122779   1.9028037      737.15503     -59.885098      677.26993    
    298000   312.22677      0.0054122779   0.81172589     774.64323     -62.44748       712.19575    
    299000   298.34322      0.0054122779   6.5717484      740.19776     -61.415066      678.7827     
    300000   302.67174      0.0054122779   2.6442728      750.93692     -63.270044      687.66687    
    301000   311.90295      0.0054122779   2.4701295      773.83981     -68.380909      705.4589     
    302000   298.10937      0.0054122779   3.5617715      739.61756     -65.814289      673.80327    
    303000   285.89009      0.0054122779   3.9268915      709.3012      -65.484744      643.81646    
    304000   301.32467      0.0054122779   0.7374753      747.59481     -61.719632      685.87517    
    305000   309.78975      0.0054122779   2.8391754      768.59692     -62.776124      705.82079    
    306000   294.9854       0.0054122779   2.7348546      731.86691     -64.785337      667.08158    
    307000   286.81689      0.0054122779   2.6772389      711.60061     -62.087099      649.51351    
    308000   308.92372      0.0054122779   2.6207033      766.44826     -64.524327      701.92394    
    309000   291.12131      0.0054122779   3.2456898      722.27998     -65.171724      657.10826    
    310000   298.26291      0.0054122779   2.1608497      739.99849     -62.554634      677.44386    
    311000   314.31029      0.0054122779   3.5083248      779.8125      -65.021498      714.79101    
    312000   296.61115      0.0054122779   3.1731358      735.90044     -61.924572      673.97587    
    313000   296.59246      0.0054122779   2.7569858      735.85407     -63.504607      672.34946    
    314000   285.9638       0.0054122779   4.5390412      709.48407     -65.355991      644.12808    
    315000   303.0397       0.0054122779   3.0004491      751.84985     -64.456817      687.39304    
    316000   304.49452      0.0054122779   3.1196262      755.45929     -61.379537      694.07975    
    317000   301.66833      0.0054122779   3.0496527      748.44743     -60.942434      687.505      
    318000   291.80851      0.0054122779   3.4485126      723.98496     -59.886912      664.09805    
    319000   309.12769      0.0054122779   2.6137184      766.95431     -59.492577      707.46173    
    320000   305.653        0.0054122779   3.0556366      758.33353     -57.661718      700.67181    
    321000   292.93207      0.0054122779   2.6400412      726.77253     -60.044774      666.72775    
    322000   295.73988      0.0054122779   2.8738773      733.7388      -64.037571      669.70123    
    323000   315.40462      0.0054122779   3.0568705      782.52756     -60.676412      721.85115    
    324000   296.19003      0.0054122779   6.8441047      734.85564     -62.293395      672.56224    
    325000   293.19682      0.0054122779   2.8025908      727.42939     -62.246849      665.18254    
    326000   301.77979      0.0054122779   0.25906671     748.72398     -62.02647       686.69751    
    327000   304.09193      0.0054122779   2.1307532      754.46045     -61.352272      693.10818    
    328000   296.85287      0.0054122779   3.5707066      736.50016     -57.84506       678.6551     
    329000   288.38903      0.0054122779   3.10388        715.50112     -60.209825      655.2913     
    330000   301.7961       0.0054122779   3.2381453      748.76443     -63.451583      685.31285    
    331000   293.9556       0.0054122779   4.5590165      729.31195     -62.726599      666.58535    
    332000   305.46594      0.0054122779   0.10827749     757.86942     -60.153519      697.7159     
    333000   299.99028      0.0054122779   4.8972227      744.28416     -64.397497      679.88666    
    334000   299.44324      0.0054122779   5.4757914      742.92694     -63.291855      679.63509    
    335000   303.95596      0.0054122779  -1.198549       754.12311     -57.012734      697.11038    
    336000   304.94233      0.0054122779  -0.70016202     756.57032     -59.347549      697.22277    
    337000   309.34191      0.0054122779   0.44259191     767.48581     -64.241849      703.24396    
    338000   294.67647      0.0054122779   5.8904367      731.10045     -63.656514      667.44394    
    339000   305.7238       0.0054122779   0.87499466     758.50919     -64.802735      693.70645    
    340000   305.11791      0.0054122779   0.71772659     757.00595     -63.7237        693.28225    
    341000   293.039        0.0054122779   9.5602296      727.03785     -60.919899      666.11795    
    342000   295.47715      0.0054122779   5.3140143      733.08695     -61.16451       671.92244    
    343000   307.1307       0.0054122779  -0.24564153     761.99973     -67.343358      694.65637    
    344000   289.1888       0.0054122779   1.4348619      717.48538     -65.580936      651.90445    
    345000   312.9761       0.0054122779   8.514413       776.50233     -64.130545      712.37179    
    346000   307.06732      0.0054122779   3.9587216      761.84248     -63.419842      698.42263    
    347000   293.18348      0.0054122779   1.7904637      727.3963      -67.580584      659.81571    
    348000   313.07198      0.0054122779   1.6000035      776.74021     -64.268034      712.47218    
    349000   312.30399      0.0054122779   3.2575565      774.8348      -62.934423      711.90038    
    350000   296.78581      0.0054122779   2.9079473      736.33376     -62.614416      673.71935    
    351000   295.23946      0.0054122779   2.6678398      732.49723     -59.238035      673.2592     
    352000   299.37246      0.0054122779   3.6362524      742.75134     -64.475308      678.27603    
    353000   315.96438      0.0054122779   5.783499       783.91633     -66.620128      717.2962     
    354000   301.98619      0.0054122779   2.6484125      749.23606     -63.361627      685.87443    
    355000   305.50867      0.0054122779   0.15566196     757.97543     -62.703501      695.27193    
    356000   296.85567      0.0054122779   3.1696121      736.50711     -63.883056      672.62405    
    357000   304.58384      0.0054122779   3.3771731      755.68089     -64.522709      691.15818    
    358000   303.21453      0.0054122779   3.4058482      752.28361     -66.762201      685.52141    
    359000   293.86011      0.0054122779   2.557858       729.07502     -65.50953       663.56549    
    360000   294.19406      0.0054122779   2.1540892      729.90357     -66.668982      663.23459    
    361000   296.55457      0.0054122779   2.6352151      735.76007     -65.27834       670.48173    
    362000   299.58506      0.0054122779   3.2068391      743.27879     -64.487914      678.79087    
    363000   307.27558      0.0054122779   2.1254403      762.35918     -63.917327      698.44186    
    364000   313.09641      0.0054122779   2.6169214      776.80083     -60.055924      716.74491    
    365000   303.89463      0.0054122779   3.0469287      753.97094     -61.368565      692.60238    
    366000   296.92335      0.0054122779   3.2508384      736.67501     -59.422267      677.25274    
    367000   301.39848      0.0054122779   2.8532623      747.77794     -59.045174      688.73277    
    368000   296.77357      0.0054122779   1.4216051      736.30342     -62.046053      674.25736    
    369000   287.24027      0.0054122779   2.8340268      712.65103     -64.695814      647.95522    
    370000   294.92721      0.0054122779   3.3759364      731.72253     -67.867019      663.85552    
    371000   310.43495      0.0054122779   2.9402359      770.19767     -66.051403      704.14627    
    372000   302.47338      0.0054122779   1.4303089      750.44479     -60.862254      689.58254    
    373000   276.38597      0.0054122779   6.6857301      685.72122     -64.659038      621.06218    
    374000   304.23385      0.0054122779   3.0492514      754.81256     -65.429975      689.38259    
    375000   305.05299      0.0054122779  -0.27000824     756.84488     -65.062012      691.78286    
    376000   286.74749      0.0054122779   3.2693712      711.42842     -63.340973      648.08744    
    377000   301.77218      0.0054122779   8.9001455      748.70511     -57.521765      691.18334    
    378000   308.99855      0.0054122779   1.2856669      766.63392     -55.948175      710.68574    
    379000   301.91639      0.0054122779  -4.291089       749.06288     -56.9031        692.15978    
    380000   285.99592      0.0054122779   6.8443367      709.56377     -60.884861      648.67891    
    381000   309.46109      0.0054122779   5.0364748      767.7815      -64.237629      703.54387    
    382000   310.96353      0.0054122779   2.174727       771.5091      -57.334479      714.17462    
    383000   294.92729      0.0054122779   1.8523002      731.72273     -60.657124      671.06561    
    384000   297.29702      0.0054122779   2.9135812      737.60209     -56.782279      680.81981    
    385000   303.991        0.0054122779   2.3160229      754.21004     -60.261154      693.94889    
    386000   323.76171      0.0054122779   3.0130815      803.26173     -61.573593      741.68813    
    387000   299.65911      0.0054122779   1.2029187      743.46251     -58.204476      685.25803    
    388000   290.01797      0.0054122779   2.9067276      719.54257     -59.767236      659.77534    
    389000   304.1353       0.0054122779   2.5381697      754.56807     -64.512307      690.05576    
    390000   301.36732      0.0054122779   4.2257783      747.70063     -65.631982      682.06865    
    391000   296.84813      0.0054122779   3.3737457      736.48838     -63.308365      673.18002    
    392000   299.95981      0.0054122779   2.6063335      744.20856     -66.122493      678.08607    
    393000   292.7296       0.0054122779   3.0114747      726.2702      -62.159834      664.11036    
    394000   313.53811      0.0054122779   2.7065801      777.8967      -64.633679      713.26302    
    395000   293.98586      0.0054122779   2.836088       729.38702     -64.435053      664.95197    
    396000   287.74197      0.0054122779   2.5260449      713.89576     -60.697129      653.19863    
    397000   309.84005      0.0054122779   3.363152       768.7217      -59.141701      709.58       
    398000   307.44732      0.0054122779   5.1402829      762.78529     -64.202343      698.58294    
    399000   288.66135      0.0054122779   6.2669382      716.17677     -60.308927      655.86784    
    400000   301.70542      0.0054122779   2.3692417      748.53947     -57.403451      691.13602    
    401000   305.73508      0.0054122779   1.7990291      758.53716     -58.654484      699.88268    
    402000   302.4967       0.0054122779   7.9071442      750.50264     -60.309701      690.19294    
    403000   297.00805      0.0054122779   1.8421725      736.88516     -58.058696      678.82647    
    404000   309.40772      0.0054122779  -0.26251714     767.64908     -57.232819      710.41626    
    405000   299.22513      0.0054122779   5.5058899      742.38578     -56.945634      685.44015    
    406000   293.82877      0.0054122779  -3.7485149      728.99727     -62.987636      666.00963    
    407000   301.83868      0.0054122779   0.75571553     748.87008     -62.376374      686.49371    
    408000   300.59748      0.0054122779   7.0575711      745.79064     -57.880112      687.91053    
    409000   296.46267      0.0054122779   3.3650794      735.53205     -61.950748      673.5813     
    410000   296.29465      0.0054122779   3.0693998      735.1152      -59.657181      675.45802    
    411000   311.11844      0.0054122779  -2.1059342      771.89342     -59.108307      712.78512    
    412000   298.50755      0.0054122779   4.3923564      740.60546     -57.28379       683.32167    
    413000   285.07109      0.0054122779   1.8990929      707.26924     -59.500131      647.76911    
    414000   305.31111      0.0054122779   2.4184837      757.48528     -60.916276      696.56901    
    415000   303.97813      0.0054122779   3.1250056      754.17811     -60.560125      693.61799    
    416000   298.62986      0.0054122779   3.9852009      740.90891     -62.81943       678.08948    
    417000   293.35369      0.0054122779   1.9630051      727.81859     -61.522543      666.29605    
    418000   307.56436      0.0054122779   0.0025144277   763.07566     -60.323383      702.75228    
    419000   303.11133      0.0054122779   3.3790065      752.02756     -58.470254      693.55731    
    420000   294.75683      0.0054122779   2.857471       731.29982     -59.036973      672.26285    
    421000   293.30668      0.0054122779   2.5076569      727.70195     -59.322137      668.37982    
    422000   293.50449      0.0054122779   2.9713146      728.19272     -58.633309      669.55941    
    423000   297.81351      0.0054122779   2.6780623      738.88353     -59.116738      679.76679    
    424000   303.20145      0.0054122779   2.1849025      752.25115     -59.95729       692.29386    
    425000   291.82311      0.0054122779   2.8814232      724.02117     -63.000141      661.02103    
    426000   286.41293      0.0054122779   2.7703104      710.59839     -62.440393      648.15799    
    427000   293.18841      0.0054122779   2.7060919      727.40853     -60.08808       667.32045    
    428000   312.20988      0.0054122779   3.6135683      774.60131     -58.789475      715.81183    
    429000   305.23731      0.0054122779   4.3924976      757.30217     -60.01215       697.29002    
    430000   285.1139       0.0054122779   2.5524144      707.37545     -55.825214      651.55023    
    431000   299.75737      0.0054122779   1.2104164      743.70629     -61.548931      682.15736    
    432000   295.32083      0.0054122779   3.6697811      732.69913     -60.695355      672.00377    
    433000   304.36267      0.0054122779   5.1523424      755.13218     -63.764559      691.36762    
    434000   304.81863      0.0054122779   1.3788129      756.26343     -68.990585      687.27285    
    435000   309.56728      0.0054122779  -1.3120652      768.04495     -64.762423      703.28253    
    436000   291.72427      0.0054122779   4.5186562      723.77596     -61.294207      662.48176    
    437000   298.87996      0.0054122779   2.2359864      741.52943     -60.268089      681.26134    
    438000   315.60999      0.0054122779   2.8230882      783.03709     -64.221831      718.81526    
    439000   296.72094      0.0054122779   3.8342767      736.17283     -61.224303      674.94853    
    440000   295.66303      0.0054122779   0.88990157     733.54812     -61.503449      672.04467    
    441000   301.5253       0.0054122779   2.4956174      748.09259     -63.598732      684.49385    
    442000   303.2504       0.0054122779   9.0396242      752.3726      -64.986724      687.38588    
    443000   298.23685      0.0054122779   1.163095       739.93385     -62.682973      677.25088    
    444000   298.40002      0.0054122779   1.8291384      740.33867     -64.880976      675.4577     
    445000   303.63752      0.0054122779   3.2433194      753.33307     -64.095022      689.23805    
    446000   288.59804      0.0054122779   4.009731       716.01969     -61.899767      654.11992    
    447000   295.80343      0.0054122779   0.035340208    733.89647     -66.35441       667.54206    
    448000   307.13254      0.0054122779   1.9202446      762.00429     -68.086414      693.91788    
    449000   305.4401       0.0054122779   4.3067008      757.80532     -59.516583      698.28873    
    450000   300.76232      0.0054122779   5.2086233      746.19962     -59.052682      687.14694    
    451000   305.26888      0.0054122779   4.5325707      757.38051     -58.910062      698.47044    
    452000   291.92594      0.0054122779   0.94657053     724.27631     -60.424089      663.85222    
    453000   296.04511      0.0054122779  -0.35819614     734.49608     -62.410952      672.08513    
    454000   306.34558      0.0054122779  -6.3593907      760.05182     -63.036792      697.01502    
    455000   299.5457       0.0054122779   2.5245059      743.18114     -59.704402      683.47674    
    456000   300.52015      0.0054122779   4.2572525      745.59879     -59.150667      686.44812    
    457000   300.59936      0.0054122779   3.8759188      745.79529     -60.822553      684.97274    
    458000   289.72794      0.0054122779   0.70194146     718.823       -56.635236      662.18777    
    459000   290.67877      0.0054122779   4.3605182      721.18203     -58.981337      662.20069    
    460000   285.85028      0.0054122779  -2.5233568      709.20243     -57.182503      652.01992    
    461000   300.43613      0.0054122779   1.5442427      745.39033     -53.875726      691.51461    
    462000   309.57896      0.0054122779   2.5529514      768.07393     -51.476825      716.5971     
    463000   302.9327       0.0054122779   2.8923251      751.58438     -56.491017      695.09336    
    464000   293.67661      0.0054122779   2.1350604      728.61977     -55.942832      672.67694    
    465000   306.0971       0.0054122779   3.0397912      759.43534     -56.903283      702.53206    
    466000   302.77611      0.0054122779   3.5930245      751.19588     -57.337583      693.8583     
    467000   286.15658      0.0054122779   2.7261014      709.96236     -58.692099      651.27026    
    468000   306.94225      0.0054122779   2.9241627      761.5322      -57.111552      704.42064    
    469000   308.94863      0.0054122779   3.5840854      766.51008     -55.828938      710.68114    
    470000   279.14881      0.0054122779   2.7636113      692.5759      -54.243345      638.33256    
    471000   298.9417       0.0054122779   1.6555812      741.6826      -53.399669      688.28293    
    472000   302.45604      0.0054122779   2.5331512      750.40177     -54.112606      696.28916    
    473000   320.53459      0.0054122779   3.5473306      795.25514     -54.767339      740.4878     
    474000   298.08715      0.0054122779   3.6849249      739.56243     -55.900685      683.66175    
    475000   295.62147      0.0054122779   2.9349383      733.44502     -52.784231      680.66079    
    476000   313.35538      0.0054122779   2.740251       777.44334     -52.569465      724.87388    
    477000   297.64106      0.0054122779   2.9156498      738.45568     -56.526174      681.9295     
    478000   284.68244      0.0054122779   2.7544739      706.30498     -56.32829       649.97669    
    479000   294.08025      0.0054122779   2.8434595      729.6212      -58.040187      671.58101    
    480000   316.07867      0.0054122779   3.3396246      784.19989     -62.750573      721.44931    
    481000   307.16997      0.0054122779   3.526492       762.09717     -57.00954       705.08763    
    482000   291.46522      0.0054122779   2.9327836      723.13325     -57.966408      665.16684    
    483000   297.83467      0.0054122779   2.852194       738.93602     -59.306566      679.62945    
    484000   305.17949      0.0054122779   2.790864       757.15873     -59.907439      697.25129    
    485000   296.85792      0.0054122779   2.695086       736.51267     -53.186333      683.32634    
    486000   303.58904      0.0054122779   3.4878098      753.21278     -56.883301      696.32948    
    487000   301.20817      0.0054122779   2.4035855      747.30578     -59.562982      687.7428     
    488000   298.42081      0.0054122779   3.3533883      740.39025     -60.227972      680.16228    
    489000   298.03363      0.0054122779   2.7328413      739.42964     -63.769745      675.6599     
    490000   298.7401       0.0054122779   2.2606315      741.18241     -59.788137      681.39427    
    491000   295.84346      0.0054122779   3.1696645      733.99578     -59.714604      674.28117    
    492000   299.61436      0.0054122779   2.3994715      743.35148     -55.936065      687.41541    
    493000   297.70193      0.0054122779   2.8277897      738.6067      -54.348884      684.25782    
    494000   303.24805      0.0054122779   3.0300172      752.36678     -56.200981      696.1658     
    495000   298.135        0.0054122779   2.5374205      739.68115     -55.339435      684.34171    
    496000   291.33605      0.0054122779   3.3781079      722.81277     -53.488608      669.32416    
    497000   307.88256      0.0054122779   3.2964655      763.86511     -54.312034      709.55307    
    498000   295.11721      0.0054122779   1.3495616      732.19393     -54.432046      677.76189    
    499000   285.37959      0.0054122779   4.7504708      708.03463     -52.933777      655.10086    
    500000   303.66319      0.0054122779   7.8970219      753.39673     -53.285678      700.11105    
    501000   309.5449       0.0054122779   4.3499668      767.98943     -52.925052      715.06438    
    502000   299.82116      0.0054122779  -1.0338795      743.86455     -55.189828      688.67473    
    503000   297.17416      0.0054122779  -0.82707402     737.29727     -57.728144      679.56913    
    504000   294.70626      0.0054122779   5.6101223      731.17435     -58.48918       672.68517    
    505000   307.82538      0.0054122779  -1.4847501      763.72325     -54.291355      709.4319     
    506000   291.5583       0.0054122779  -3.4571024      723.36417     -57.628231      665.73594    
    507000   294.67192      0.0054122779   9.9335822      731.08916     -57.906539      673.18262    
    508000   303.86669      0.0054122779   3.4744314      753.90164     -54.735235      699.1664     
    509000   302.75077      0.0054122779   1.5422589      751.13299     -60.125944      691.00705    
    510000   286.85449      0.0054122779   2.1631705      711.69389     -58.307144      653.38675    
    511000   300.68088      0.0054122779   8.3729052      745.99755     -57.206354      688.79119    
    512000   311.99416      0.0054122779   1.3099989      774.0661      -57.19296       716.87314    
    513000   282.07334      0.0054122779   2.4507449      699.83172     -57.379019      642.45271    
    514000   291.45179      0.0054122779   4.0744385      723.09991     -60.533016      662.5669     
    515000   318.0448       0.0054122779   6.6904444      789.07791     -59.192473      729.88543    
    516000   309.37815      0.0054122779   0.27697867     767.57573     -59.680494      707.89523    
    517000   276.71804      0.0054122779  -2.3767544      686.54508     -54.18411       632.36097    
    518000   290.3501       0.0054122779  -1.293175       720.3666      -54.949547      665.41706    
    519000   300.05363      0.0054122779   2.4396648      744.44134     -57.615682      686.82565    
    520000   294.53608      0.0054122779   3.9876072      730.75213     -58.419748      672.33239    
    521000   302.04978      0.0054122779   3.6039988      749.39382     -60.585931      688.80789    
    522000   293.51651      0.0054122779  -4.3472605      728.22255     -57.591978      670.63057    
    523000   298.1278       0.0054122779   4.6733487      739.66329     -57.544839      682.11845    
    524000   298.89159      0.0054122779   10.597605      741.55827     -58.676377      682.88189    
    525000   302.44952      0.0054122779   5.0503948      750.3856      -60.788452      689.59715    
    526000   302.39048      0.0054122779  -3.0197805      750.23913     -58.73561       691.50352    
    527000   289.11078      0.0054122779   2.831034       717.29182     -57.826948      659.46487    
    528000   309.83683      0.0054122779   3.7489003      768.71371     -61.887735      706.82597    
    529000   291.18322      0.0054122779  -4.912456       722.43359     -63.153143      659.28044    
    530000   296.14043      0.0054122779   3.5261841      734.73256     -58.080744      676.65182    
    531000   308.92927      0.0054122779   5.1240968      766.46203     -56.614362      709.84767    
    532000   312.58316      0.0054122779   4.3923602      775.52744     -56.806285      718.72115    
    533000   301.86238      0.0054122779   2.919608       748.92889     -56.821351      692.10754    
    534000   296.21024      0.0054122779   2.1543682      734.90578     -56.587744      678.31803    
    535000   293.21045      0.0054122779   2.158413       727.46322     -58.440379      669.02284    
    536000   298.00645      0.0054122779   3.3877851      739.36221     -58.86826       680.49395    
    537000   305.03445      0.0054122779   3.180011       756.79888     -59.123325      697.67556    
    538000   320.64614      0.0054122779   2.9379446      795.53192     -54.02506       741.50686    
    539000   289.71803      0.0054122779   2.0362919      718.79841     -54.42202       664.37639    
    540000   290.92834      0.0054122779   3.0927626      721.80123     -56.926653      664.87458    
    541000   318.4789       0.0054122779   3.1760968      790.15492     -50.997297      739.15762    
    542000   302.81471      0.0054122779   2.8541344      751.29165     -55.008389      696.28327    
    543000   291.01656      0.0054122779   2.4356666      722.0201      -52.759324      669.26077    
    544000   305.20653      0.0054122779   2.9598098      757.2258      -53.097607      704.1282     
    545000   298.46238      0.0054122779   3.7425928      740.4934      -56.325243      684.16816    
    546000   292.33195      0.0054122779   2.6656795      725.28363     -56.183384      669.10025    
    547000   319.26448      0.0054122779   1.3388429      792.10397     -55.43099       736.67298    
    548000   324.48126      0.0054122779   3.4891472      805.04694     -54.568067      750.47887    
    549000   302.07039      0.0054122779   4.4756661      749.44498     -53.326343      696.11863    
    550000   292.56942      0.0054122779   3.1710176      725.87279     -49.977746      675.89504    
    551000   287.07558      0.0054122779   1.7297188      712.24242     -52.494634      659.74778    
    552000   308.22259      0.0054122779   2.7868428      764.70874     -51.801436      712.9073     
    553000   299.11617      0.0054122779   2.8003146      742.11547     -50.365321      691.75015    
    554000   284.86205      0.0054122779   2.6519793      706.75059     -50.36581       656.38478    
    555000   303.58769      0.0054122779   2.6611404      753.20942     -50.245707      702.96372    
    556000   303.01572      0.0054122779   2.8606433      751.79035     -52.213187      699.57716    
    557000   297.21064      0.0054122779   2.8057201      737.38779     -54.215768      683.17202    
    558000   278.90259      0.0054122779   2.8421148      691.96501     -53.964198      638.00081    
    559000   296.34055      0.0054122779   2.864128       735.22908     -55.508023      679.72106    
    560000   314.73165      0.0054122779   2.9597771      780.85789     -58.058415      722.79948    
    561000   294.71481      0.0054122779   2.8828125      731.19556     -48.157484      683.03808    
    562000   285.83208      0.0054122779   2.3570817      709.15728     -50.687578      658.4697     
    563000   309.39098      0.0054122779   2.8756791      767.60756     -51.047374      716.56018    
    564000   297.25686      0.0054122779   2.6295182      737.50247     -47.83846       689.66401    
    565000   296.19488      0.0054122779   3.2135933      734.86765     -48.656908      686.21074    
    566000   308.40961      0.0054122779   2.3005736      765.17274     -51.587402      713.58534    
    567000   302.22502      0.0054122779   2.631699       749.8286      -46.862205      702.9664     
    568000   304.40622      0.0054122779   3.965294       755.24023     -40.969232      714.27099    
    569000   302.59344      0.0054122779   4.5942639      750.74267     -42.902761      707.8399     
    570000   289.28273      0.0054122779   2.583653       717.71844     -44.897782      672.82065    
    571000   305.25648      0.0054122779   1.3109831      757.34975     -45.849958      711.49979    
    572000   306.62377      0.0054122779   1.2307804      760.74204     -44.222243      716.51979    
    573000   304.99215      0.0054122779   2.8679065      756.69392     -48.017841      708.67608    
    574000   292.70686      0.0054122779   3.9545452      726.21379     -45.16709       681.0467     
    575000   302.6076       0.0054122779   2.8918702      750.77779     -43.820966      706.95682    
    576000   296.61291      0.0054122779   2.900865       735.9048      -43.504704      692.4001     
    577000   289.00504      0.0054122779   2.2579393      717.02947     -45.554042      671.47543    
    578000   302.00825      0.0054122779   3.2474848      749.2908      -48.872344      700.41846    
    579000   303.64971      0.0054122779   3.5693563      753.36329     -49.580534      703.78276    
    580000   294.44379      0.0054122779   2.5630508      730.52316     -48.784775      681.73838    
    581000   298.78153      0.0054122779   2.143286       741.28522     -44.263994      697.02123    
    582000   304.33245      0.0054122779   3.0802378      755.0572      -47.034138      708.02306    
    583000   306.04071      0.0054122779   3.2941004      759.29544     -46.973351      712.32209    
    584000   296.59088      0.0054122779   3.6306625      735.85014     -48.73537       687.11477    
    585000   297.52579      0.0054122779   2.9770325      738.16969     -47.225734      690.94395    
    586000   304.50263      0.0054122779   0.90327404     755.47942     -43.749136      711.73029    
    587000   313.66523      0.0054122779   2.8168499      778.21207     -44.661625      733.55045    
    588000   300.11697      0.0054122779   3.8009259      744.59847     -52.417654      692.18082    
    589000   289.75705      0.0054122779   3.4642887      718.89522     -51.699631      667.19559    
    590000   296.3201       0.0054122779   2.8658616      735.17834     -49.641696      685.53664    
    591000   306.76017      0.0054122779   2.9529279      761.08044     -49.66977       711.41067    
    592000   302.04275      0.0054122779   2.5066512      749.37639     -46.116986      703.2594     
    593000   296.55089      0.0054122779   1.9031257      735.75093     -44.953287      690.79764    
    594000   294.12229      0.0054122779   3.3821791      729.72552     -44.349935      685.37558    
    595000   304.83011      0.0054122779   2.9995602      756.2919      -43.08176       713.21014    
    596000   310.10797      0.0054122779   3.7565885      769.38641     -43.600836      725.78558    
    597000   296.23902      0.0054122779   3.2607722      734.97719     -49.240837      685.73635    
    598000   301.65937      0.0054122779   2.2481638      748.42522     -49.044737      699.38048    
    599000   307.53616      0.0054122779   3.2863752      763.00569     -49.530252      713.47543    
    600000   304.65749      0.0054122779   2.173461       755.86363     -46.982733      708.8809     
    601000   308.20767      0.0054122779   5.4306905      764.67173     -43.47711       721.19462    
    602000   309.11074      0.0054122779   3.2471438      766.91227     -44.915318      721.99695    
    603000   298.48438      0.0054122779   2.4802153      740.54796     -42.018508      698.52946    
    604000   300.72526      0.0054122779  -0.256022       746.10766     -41.102519      705.00514    
    605000   303.52337      0.0054122779   2.5394863      753.04986     -40.992939      712.05692    
    606000   303.44583      0.0054122779   3.1128395      752.85747     -42.608925      710.24854    
    607000   308.97983      0.0054122779   3.8852171      766.58748     -42.002707      724.58477    
    608000   296.6435       0.0054122779   3.2482601      735.98071     -43.931321      692.04939    
    609000   294.23634      0.0054122779   2.4716713      730.00847     -45.16391       684.84456    
    610000   310.82832      0.0054122779   2.8920565      771.17364     -44.765605      726.40803    
    611000   304.80525      0.0054122779   3.4292715      756.23024     -43.099103      713.13113    
    612000   288.71062      0.0054122779   1.7846055      716.29901     -40.467577      675.83144    
    613000   326.90546      0.0054122779   3.4708758      811.06146     -40.073107      770.98835    
    614000   292.8601       0.0054122779   5.8120406      726.59398     -40.646097      685.94789    
    615000   290.73095      0.0054122779   2.4425175      721.3115      -40.885164      680.42633    
    616000   302.89046      0.0054122779   2.5169789      751.47957     -42.147495      709.33207    
    617000   304.073        0.0054122779   6.6132382      754.41349     -41.178108      713.23538    
    618000   303.30722      0.0054122779   2.8809092      752.51358     -38.940798      713.57278    
    619000   301.9605       0.0054122779   2.0585195      749.17231     -40.393498      708.77881    
    620000   312.34214      0.0054122779   3.1977693      774.92947     -39.412804      735.51666    
    621000   294.34804      0.0054122779   3.1304436      730.28559     -40.279112      690.00648    
    622000   294.94718      0.0054122779   3.0688696      731.77209     -39.893004      691.87908    
    623000   300.31315      0.0054122779   1.4734395      745.0852      -39.273328      705.81187    
    624000   302.71905      0.0054122779   3.0098393      751.05432     -41.035418      710.0189     
    625000   292.85739      0.0054122779   3.3936445      726.58726     -43.810555      682.77671    
    626000   300.05749      0.0054122779   2.6744909      744.45089     -39.587468      704.86342    
    627000   299.1934       0.0054122779   3.0065549      742.30707     -38.722056      703.58501    
    628000   293.80319      0.0054122779   2.0030649      728.93381     -39.830186      689.10362    
    629000   303.98861      0.0054122779   3.0641786      754.20412     -40.133079      714.07104    
    630000   301.46876      0.0054122779   2.798864       747.9523      -41.218638      706.73366    
    631000   302.6276       0.0054122779   3.7878216      750.82741     -41.192864      709.63455    
    632000   298.12173      0.0054122779   1.7983703      739.64824     -34.99228       704.65596    
    633000   302.28398      0.0054122779   3.2203732      749.97488     -37.129171      712.84571    
    634000   308.2919       0.0054122779   4.8045348      764.88069     -40.915214      723.96548    
    635000   297.64251      0.0054122779   2.3353428      738.45926     -41.017493      697.44177    
    636000   301.3149       0.0054122779   3.3676901      747.57057     -40.545729      707.02484    
    637000   308.66554      0.0054122779   4.1475897      765.80773     -40.538142      725.26958    
    638000   299.34159      0.0054122779   2.2164012      742.67475     -43.766397      698.90835    
    639000   284.72274      0.0054122779   2.6528242      706.40496     -40.369392      666.03557    
    640000   307.79601      0.0054122779   3.2408678      763.65038     -46.429886      717.2205     
    641000   303.6252       0.0054122779   2.7056515      753.30248     -46.837423      706.46506    
    642000   302.74502      0.0054122779   2.5311163      751.11873     -45.820721      705.29801    
    643000   302.50377      0.0054122779   2.4473746      750.5202      -46.42502       704.09518    
    644000   297.69236      0.0054122779   2.9147167      738.58295     -45.154479      693.42847    
    645000   304.20453      0.0054122779   3.0320665      754.73982     -45.174441      709.56538    
    646000   292.61403      0.0054122779   1.2572071      725.98347     -47.031483      678.95198    
    647000   304.826        0.0054122779   3.4679783      756.2817      -46.384909      709.8968     
    648000   309.00706      0.0054122779   2.982868       766.65505     -42.053108      724.60194    
    649000   296.72124      0.0054122779   2.9852902      736.17357     -39.893213      696.28036    
    650000   281.86846      0.0054122779   2.7956801      699.32341     -38.306747      661.01666    
    651000   300.1384       0.0054122779   2.4082085      744.65163     -37.790736      706.8609     
    652000   312.01623      0.0054122779   3.054345       774.12086     -41.778792      732.34207    
    653000   297.86493      0.0054122779   5.1650944      739.01111     -39.952524      699.05858    
    654000   287.34858      0.0054122779   2.454899       712.91974     -46.983137      665.9366     
    655000   314.93272      0.0054122779   1.9993416      781.35677     -42.147626      739.20914    
    656000   302.8868       0.0054122779   3.0814947      751.4705      -40.754507      710.71599    
    657000   302.01548      0.0054122779   2.8820486      749.30872     -41.389425      707.9193     
    658000   296.56559      0.0054122779   2.9609675      735.78741     -40.862838      694.92457    
    659000   291.66138      0.0054122779   2.9847981      723.61992     -45.067462      678.55246    
    660000   296.07244      0.0054122779   1.9289261      734.56388     -41.721187      692.84269    
    661000   298.21883      0.0054122779   3.0899002      739.88915     -41.566602      698.32254    
    662000   302.41236      0.0054122779   4.2582275      750.2934      -40.544953      709.74844    
    663000   301.17027      0.0054122779   0.1445755      747.21174     -38.081684      709.13006    
    664000   292.43333      0.0054122779   1.2878913      725.53515     -37.857942      687.67721    
    665000   296.46256      0.0054122779   3.3751548      735.53177     -38.854955      696.67682    
    666000   301.30047      0.0054122779   5.7096528      747.53476     -41.548802      705.98596    
    667000   306.11613      0.0054122779   3.1635371      759.48257     -38.462314      721.02025    
    668000   286.55492      0.0054122779   2.4171465      710.95066     -41.343882      669.60678    
    669000   293.20228      0.0054122779   2.8610087      727.44294     -38.844569      688.59838    
    670000   305.86732      0.0054122779   2.878274       758.86526     -38.466715      720.39854    
    671000   295.17381      0.0054122779   2.6923979      732.33435     -36.145001      696.18935    
    672000   295.90432      0.0054122779   2.7721669      734.14678     -37.005628      697.14115    
    673000   302.52873      0.0054122779   3.1501308      750.58211     -37.318156      713.26396    
    674000   311.55575      0.0054122779   3.3787999      772.9784      -37.586959      735.39144    
    675000   294.84658      0.0054122779   3.5830244      731.5225      -35.571122      695.95137    
    676000   302.58513      0.0054122779  -0.13997305     750.72205     -37.966355      712.75569    
    677000   305.11165      0.0054122779   2.4843834      756.99042     -33.220286      723.77013    
    678000   300.20376      0.0054122779   4.033668       744.81381     -34.50963       710.30418    
    679000   298.08407      0.0054122779   4.0633411      739.5548      -35.876739      703.67806    
    680000   294.64138      0.0054122779   3.4167512      731.01339     -36.049343      694.96405    
    681000   305.49994      0.0054122779   0.61502245     757.95377     -35.673113      722.28065    
    682000   302.21668      0.0054122779   5.6779638      749.80792     -33.842507      715.96541    
    683000   286.99679      0.0054122779   0.62355972     712.04695     -32.538275      679.50867    
    684000   292.43456      0.0054122779   2.5652277      725.5382      -35.367839      690.17036    
    685000   311.10249      0.0054122779   2.697134       771.85386     -35.142771      736.71109    
    686000   309.2827       0.0054122779   4.5002181      767.3389      -32.149025      735.18987    
    687000   286.2948       0.0054122779   3.6144117      710.3053      -31.29623       679.00907    
    688000   295.68819      0.0054122779   1.8338969      733.61056     -32.023893      701.58667    
    689000   316.56874      0.0054122779   0.90867082     785.41576     -29.704187      755.71157    
    690000   302.10472      0.0054122779   4.0990804      749.53013     -29.264096      720.26603    
    691000   288.92476      0.0054122779   2.9983462      716.83029     -31.028079      685.80221    
    692000   296.2543       0.0054122779   2.480843       735.01508     -33.788918      701.22616    
    693000   323.82834      0.0054122779   4.2338318      803.42704     -33.683561      769.74348    
    694000   294.87867      0.0054122779   5.1663121      731.60211     -34.083168      697.51894    
    695000   288.96781      0.0054122779   2.757508       716.93711     -36.73983       680.19728    
    696000   313.32958      0.0054122779   2.8851693      777.37932     -31.939069      745.44025    
    697000   317.03068      0.0054122779   3.0163521      786.56185     -35.561876      750.99997    
    698000   303.95476      0.0054122779   2.0764321      754.12014     -36.875267      717.24487    
    699000   283.84558      0.0054122779   2.4588553      704.22872     -35.711258      668.51746    
    700000   294.73085      0.0054122779   3.6578464      731.23535     -40.679905      690.55545    
    701000   303.79933      0.0054122779   5.4953702      753.73451     -33.022263      720.71225    
    702000   290.65931      0.0054122779  -1.2580257      721.13376     -31.650233      689.48353    
    703000   297.99451      0.0054122779   3.9733787      739.3326      -34.092056      705.24054    
    704000   312.18743      0.0054122779   4.2105639      774.54561     -33.662141      740.88347    
    705000   316.82992      0.0054122779   2.6369258      786.06376     -29.0629        757.00086    
    706000   302.51654      0.0054122779  -0.92328205     750.55186     -32.355995      718.19587    
    707000   297.40535      0.0054122779   2.7345299      737.87087     -33.412266      704.45861    
    708000   303.07843      0.0054122779   5.8529721      751.94593     -28.450791      723.49514    
    709000   305.38922      0.0054122779   3.3820265      757.67906     -30.285145      727.39392    
    710000   314.95419      0.0054122779  -2.991551       781.41004     -26.371864      755.03817    
    711000   293.45025      0.0054122779   2.2077564      728.05816     -27.389465      700.6687     
    712000   291.62489      0.0054122779   3.8092594      723.52939     -27.703374      695.82602    
    713000   304.76365      0.0054122779   7.9510963      756.12701     -27.559724      728.56728    
    714000   305.59244      0.0054122779   5.833565       758.18326     -27.792522      730.39074    
    715000   296.32015      0.0054122779   1.0556092      735.17847     -25.586695      709.59178    
    716000   297.01149      0.0054122779  -0.042585315    736.8937      -24.834055      712.05964    
    717000   307.09142      0.0054122779   3.0534149      761.90227     -29.032839      732.86943    
    718000   300.85805      0.0054122779   3.7682527      746.43711     -26.312218      720.12489    
    719000   305.62097      0.0054122779   4.9165684      758.25404     -26.337833      731.91621    
    720000   305.13723      0.0054122779  -0.2317759      757.05388     -24.071486      732.9824     
    721000   292.67831      0.0054122779   2.9656768      726.14295     -22.713347      703.4296     
    722000   308.072        0.0054122779   3.3517338      764.33511     -26.063044      738.27207    
    723000   303.54634      0.0054122779   2.5209252      753.10684     -25.480169      727.62667    
    724000   298.09886      0.0054122779   3.1905128      739.59149     -25.86346       713.72803    
[...]
   3823000   306.0354       0.0054122779   2.9804442      759.28227     -7.6335509      751.64872    
   3824000   301.36814      0.0054122779   2.4616851      747.70266     -9.0875584      738.61511    
   3825000   295.56603      0.0054122779   2.8030214      733.30747     -11.48468       721.82279    
   3826000   302.46281      0.0054122779   3.3382595      750.41858     -11.594198      738.82438    
   3827000   302.4171       0.0054122779   2.8579077      750.30516     -8.9946354      741.31052    
   3828000   303.4024       0.0054122779   2.6340123      752.74972     -11.468689      741.28103    
   3829000   294.05157      0.0054122779   2.7478315      729.55004     -10.431149      719.11889    
   3830000   274.9733       0.0054122779   5.3875981      682.21634     -11.986242      670.23009    
   3831000   302.67781      0.0054122779   3.3351921      750.95198     -9.1206856      741.8313     
   3832000   314.62612      0.0054122779   2.6036851      780.59607     -10.089505      770.50656    
   3833000   300.577        0.0054122779   2.6531952      745.73983     -10.029764      735.71007    
   3834000   289.3424       0.0054122779   3.0300903      717.86647     -9.3876665      708.4788     
   3835000   302.98145      0.0054122779   4.1868778      751.70533     -10.708486      740.99684    
   3836000   311.18042      0.0054122779   2.0551176      772.04719     -12.673336      759.37385    
   3837000   284.74029      0.0054122779   3.2032562      706.4485      -13.179325      693.26918    
   3838000   293.70601      0.0054122779   3.7556138      728.6927      -11.987414      716.70529    
   3839000   320.91772      0.0054122779   3.2252349      796.20572     -10.801213      785.40451    
   3840000   300.89318      0.0054122779   2.8381439      746.52427     -10.348027      736.17624    
   3841000   280.57979      0.0054122779   1.8490818      696.12619     -8.8406949      687.28549    
   3842000   293.81225      0.0054122779   4.2120023      728.9563      -6.91491        722.04139    
   3843000   309.00719      0.0054122779   2.6710606      766.65535     -9.6180138      757.03733    
   3844000   298.41387      0.0054122779   0.90337316     740.37304     -9.3958726      730.97717    
   3845000   293.81107      0.0054122779   2.909638       728.95337     -8.3079368      720.64543    
   3846000   312.2534       0.0054122779   6.2309826      774.7093      -7.6121766      767.09712    
   3847000   311.99681      0.0054122779   3.3411804      774.07269     -8.3742906      765.6984     
   3848000   309.12149      0.0054122779   2.1374244      766.93893     -9.2667412      757.67219    
   3849000   298.06422      0.0054122779   2.7086127      739.50555     -12.048795      727.45675    
   3850000   297.4356       0.0054122779   2.6635163      737.94592     -13.725027      724.2209     
   3851000   305.59074      0.0054122779   2.824794       758.17906     -12.406509      745.77255    
   3852000   311.23705      0.0054122779   2.9693756      772.18771     -13.039798      759.14791    
   3853000   302.70661      0.0054122779   2.8663753      751.02345     -10.724097      740.29935    
   3854000   284.47414      0.0054122779   2.7910375      705.78818     -9.9070784      695.8811     
   3855000   294.68373      0.0054122779   3.4539923      731.11847     -9.3663426      721.75212    
   3856000   304.38087      0.0054122779   3.7534465      755.17732     -9.7697366      745.40759    
   3857000   298.08153      0.0054122779   2.7434912      739.5485      -10.969729      728.57877    
   3858000   293.37052      0.0054122779   3.1188059      727.86035     -8.8185167      719.04184    
   3859000   292.74848      0.0054122779   4.6385443      726.31704     -13.235136      713.08191    
   3860000   311.79278      0.0054122779   1.6474425      773.56648     -9.9195487      763.64694    
   3861000   298.02721      0.0054122779   2.2783875      739.41373     -12.636312      726.77742    
   3862000   297.54272      0.0054122779   3.4576659      738.21169     -11.385727      726.82596    
   3863000   301.74338      0.0054122779   3.8472801      748.63363     -9.5566855      739.07695    
   3864000   307.1416       0.0054122779   0.56466039     762.02677     -10.201599      751.82517    
   3865000   299.42721      0.0054122779   3.0987822      742.88716     -11.227755      731.65941    
   3866000   299.88243      0.0054122779   4.2292217      744.01658     -10.322749      733.69383    
   3867000   306.56455      0.0054122779   3.5828384      760.5951      -10.515043      750.08006    
   3868000   296.41297      0.0054122779   0.35559961     735.40875     -10.992766      724.41599    
   3869000   298.46922      0.0054122779   3.9776762      740.51036     -11.860127      728.65023    
   3870000   310.84752      0.0054122779   3.4703906      771.22127     -11.91869       759.30258    
   3871000   301.18109      0.0054122779   1.4218767      747.23859     -14.635553      732.60303    
   3872000   300.27828      0.0054122779   2.9323099      744.9987      -15.096372      729.90232    
   3873000   300.81366      0.0054122779   2.5477759      746.32697     -13.887655      732.43932    
   3874000   300.99251      0.0054122779   0.19668592     746.77073     -15.196666      731.57406    
   3875000   293.42055      0.0054122779   2.7420124      727.98448     -12.235099      715.74938    
   3876000   301.76098      0.0054122779   3.5233007      748.6773      -12.947419      735.72988    
   3877000   291.49917      0.0054122779   3.4888205      723.21748     -13.701232      709.51624    
   3878000   302.06495      0.0054122779   1.1748075      749.43146     -13.023348      736.40812    
   3879000   300.25889      0.0054122779   0.99258272     744.95058     -11.452525      733.49805    
   3880000   318.73729      0.0054122779   3.9640294      790.796       -12.628216      778.16778    
   3881000   295.34923      0.0054122779   3.6535023      732.76957     -9.9220244      722.84755    
   3882000   297.52387      0.0054122779   2.1165353      738.16493     -12.434644      725.73029    
   3883000   300.15531      0.0054122779   0.51521004     744.69359     -11.956287      732.7373     
   3884000   301.92221      0.0054122779   1.779381       749.07733     -12.817062      736.26027    
   3885000   304.38111      0.0054122779   4.7300858      755.17792     -12.468813      742.70911    
   3886000   300.91126      0.0054122779   3.3964679      746.56912     -12.492774      734.07635    
   3887000   302.12394      0.0054122779   2.8936155      749.57783     -11.765535      737.81229    
   3888000   298.18088      0.0054122779   1.3829773      739.79497     -12.664709      727.13026    
   3889000   307.43035      0.0054122779   4.652765       762.74318     -11.457481      751.2857     
   3890000   302.28475      0.0054122779   4.3038418      749.97679     -13.275021      736.70177    
   3891000   301.79965      0.0054122779  -0.41460965     748.77326     -13.262959      735.5103     
   3892000   298.42461      0.0054122779   3.1276118      740.39967     -14.716755      725.68292    
   3893000   294.27046      0.0054122779   4.3349844      730.09313     -15.712074      714.38106    
   3894000   293.03093      0.0054122779   3.0326229      727.01782     -15.925226      711.09259    
   3895000   313.78739      0.0054122779   2.983504       778.51515     -15.050062      763.46509    
   3896000   309.20246      0.0054122779   3.0511467      767.13982     -17.569473      749.57035    
   3897000   296.60091      0.0054122779   3.6148433      735.87504     -17.387528      718.48752    
   3898000   290.16633      0.0054122779   3.9583397      719.91066     -13.875344      706.03532    
   3899000   293.14997      0.0054122779   5.6289056      727.31315     -16.569715      710.74343    
   3900000   304.30155      0.0054122779   1.1141866      754.98054     -18.696875      736.28366    
   3901000   300.09424      0.0054122779   3.8006646      744.54208     -13.653593      730.88849    
   3902000   301.7644       0.0054122779   3.6459306      748.6858      -12.326201      736.3596     
   3903000   286.64377      0.0054122779   3.3068034      711.1711      -9.5301884      701.64091    
   3904000   295.01412      0.0054122779   2.8857296      731.93817     -10.505927      721.43224    
   3905000   296.60244      0.0054122779   1.9148888      735.87884     -12.737904      723.14093    
   3906000   309.67934      0.0054122779   3.208102       768.32298     -11.543965      756.77901    
   3907000   298.72342      0.0054122779   2.8648441      741.14105     -13.60356       727.53749    
   3908000   297.25209      0.0054122779   3.0124833      737.49062     -15.184658      722.30596    
   3909000   306.69088      0.0054122779   2.626069       760.90853     -13.77739       747.13114    
   3910000   304.68368      0.0054122779   2.655758       755.92862     -13.777377      742.15124    
   3911000   301.67636      0.0054122779   3.5788413      748.46737     -11.285763      737.18161    
   3912000   304.25785      0.0054122779   3.04483        754.87211     -11.653175      743.21894    
   3913000   299.05702      0.0054122779   2.9608282      741.96871     -11.35693       730.61178    
   3914000   301.94384      0.0054122779   3.2701805      749.13098     -11.676417      737.45456    
   3915000   297.87315      0.0054122779   3.0637908      739.03151     -11.596412      727.4351     
   3916000   296.64249      0.0054122779   2.8410046      735.97819     -14.265133      721.71306    
   3917000   307.37763      0.0054122779   3.0617024      762.61237     -13.13393       749.47844    
   3918000   304.41503      0.0054122779   3.0854653      755.26207     -11.897355      743.36472    
   3919000   293.84236      0.0054122779   1.5464623      729.03099     -13.862972      715.16802    
   3920000   288.42901      0.0054122779   3.8737158      715.60034     -14.183202      701.41713    
   3921000   295.4303       0.0054122779   6.2037378      732.97073     -10.262346      722.70838    
   3922000   317.33162      0.0054122779   3.2078269      787.30851     -7.645306       779.6632     
   3923000   306.56008      0.0054122779   1.3011577      760.58402     -9.6604085      750.92361    
   3924000   286.50747      0.0054122779   0.55742862     710.83293     -9.7621822      701.07074    
   3925000   293.18576      0.0054122779   5.0060175      727.40194     -11.611412      715.79053    
   3926000   304.98735      0.0054122779   3.2407539      756.68202     -9.7231825      746.95884    
   3927000   303.45863      0.0054122779   2.6175858      752.88922     -9.5612965      743.32793    
   3928000   298.34408      0.0054122779   4.5231828      740.19988     -9.9467511      730.25313    
   3929000   288.90355      0.0054122779   6.3928966      716.77766     -12.082002      704.69566    
   3930000   309.53667      0.0054122779   3.7450296      767.96902     -12.850504      755.11851    
   3931000   312.14298      0.0054122779  -4.5787774      774.43534     -13.688297      760.74704    
   3932000   288.78197      0.0054122779   4.393859       716.47603     -12.265929      704.2101     
   3933000   292.36833      0.0054122779   5.4142042      725.37388     -10.883262      714.49061    
   3934000   306.01262      0.0054122779  -1.0907036      759.22574     -9.0476319      750.1781     
   3935000   295.43064      0.0054122779   4.6382439      732.97156     -9.5753143      723.39624    
   3936000   293.14743      0.0054122779   8.123329       727.30686     -10.645307      716.66155    
   3937000   318.20398      0.0054122779   2.6471921      789.47285     -9.4104428      780.06241    
   3938000   305.83726      0.0054122779   1.912925       758.79067     -9.5942444      749.19643    
   3939000   294.27888      0.0054122779   3.4434531      730.11402     -7.3181397      722.79588    
   3940000   299.3019       0.0054122779   3.8274849      742.57626     -10.762545      731.81372    
   3941000   310.72587      0.0054122779   3.4439526      770.91946     -6.6666515      764.25281    
   3942000   299.30918      0.0054122779   0.29207605     742.59433     -10.739998      731.85433    
   3943000   290.77341      0.0054122779   2.9743224      721.41685     -9.5009097      711.91594    
   3944000   303.61083      0.0054122779   5.7371067      753.26685     -8.1703552      745.09649    
   3945000   305.20106      0.0054122779   4.8569318      757.21224     -7.7685116      749.44372    
   3946000   303.61828      0.0054122779  -2.5208967      753.28531     -6.4499471      746.83537    
   3947000   296.56666      0.0054122779   3.2361623      735.79006     -9.1493601      726.6407     
   3948000   303.99793      0.0054122779   5.7735737      754.22726     -11.800822      742.42643    
   3949000   305.78522      0.0054122779  -1.2661614      758.66157     -10.578586      748.08299    
   3950000   300.13976      0.0054122779   2.5155286      744.65501     -8.5180144      736.137      
   3951000   297.69167      0.0054122779   1.8682119      738.58124     -8.9750189      729.60622    
   3952000   298.25648      0.0054122779   3.6319686      739.98254     -6.3637237      733.61881    
   3953000   300.56525      0.0054122779   4.0360961      745.71067     -9.1656335      736.54504    
   3954000   298.22022      0.0054122779   0.49908583     739.89257     -6.8532137      733.03936    
   3955000   303.10014      0.0054122779   2.9480751      751.99981     -7.0619331      744.93788    
   3956000   292.93226      0.0054122779   3.2175478      726.77302     -8.4915914      718.28143    
   3957000   292.39609      0.0054122779   2.960135       725.44275     -6.2745417      719.16821    
   3958000   307.27267      0.0054122779   3.0675717      762.35197     -7.2038151      755.14816    
   3959000   312.92873      0.0054122779   2.8944451      776.3848      -6.4850184      769.89979    
   3960000   293.84703      0.0054122779   2.6632768      729.04257     -6.3101099      722.73246    
   3961000   277.66004      0.0054122779   4.1148384      688.8822      -6.9365101      681.94569    
   3962000   301.73379      0.0054122779   5.0248245      748.60985     -7.5634223      741.04642    
   3963000   305.94403      0.0054122779   2.6550678      759.05558     -9.1180357      749.93755    
   3964000   301.773        0.0054122779   2.8516163      748.70712     -9.4941517      739.21297    
   3965000   297.14245      0.0054122779   3.4588367      737.2186      -9.4809534      727.73765    
   3966000   317.19852      0.0054122779   4.1330321      786.97828     -10.806208      776.17208    
   3967000   304.69185      0.0054122779   2.5812471      755.94888     -9.9163332      746.03255    
   3968000   283.4831       0.0054122779   2.1328061      703.32938     -10.70846       692.62092    
   3969000   291.82666      0.0054122779   3.7241264      724.03        -10.582075      713.44792    
   3970000   309.54683      0.0054122779   4.0783005      767.99421     -12.671233      755.32298    
   3971000   302.28057      0.0054122779   3.0270368      749.96642     -9.7198209      740.2466     
   3972000   297.39845      0.0054122779   2.3284935      737.85375     -5.9317066      731.92204    
   3973000   297.97673      0.0054122779   1.5472542      739.28847     -7.0565167      732.23196    
   3974000   307.02297      0.0054122779   5.2786792      761.73245     -7.2080635      754.52439    
   3975000   300.22698      0.0054122779   3.0632542      744.87141     -6.7725425      738.09887    
   3976000   301.20495      0.0054122779   2.1261645      747.29779     -5.928612       741.36918    
   3977000   300.02629      0.0054122779   3.1416623      744.37351     -7.7014262      736.67208    
   3978000   301.99367      0.0054122779   3.584501       749.25462     -6.2574028      742.99721    
   3979000   307.17897      0.0054122779   2.9245576      762.1195      -7.5264688      754.59303    
   3980000   288.22515      0.0054122779   2.8624204      715.09454     -8.4839246      706.61061    
   3981000   290.5838       0.0054122779   2.8317039      720.94641     -7.9385577      713.00785    
   3982000   311.22696      0.0054122779   2.4673181      772.16268     -6.0198797      766.1428     
   3983000   314.0542       0.0054122779   3.2918249      779.17713     -7.1481478      772.02898    
   3984000   291.52012      0.0054122779   3.5237312      723.26945     -10.549192      712.72026    
   3985000   291.99631      0.0054122779   1.6221069      724.4509      -8.7881164      715.66279    
   3986000   303.62722      0.0054122779   3.1221585      753.3075      -7.5914957      745.716      
   3987000   309.40383      0.0054122779   3.2005181      767.63944     -8.7858986      758.85354    
   3988000   296.15732      0.0054122779   3.0660477      734.77447     -8.7426144      726.03186    
   3989000   292.27006      0.0054122779   3.219186       725.13008     -5.6210757      719.509      
   3990000   302.88351      0.0054122779  -1.0676084      751.46234     -6.9953102      744.46703    
   3991000   313.11382      0.0054122779   2.578698       776.84401     -12.850228      763.99378    
   3992000   297.38849      0.0054122779   2.8274736      737.82905     -13.178269      724.65078    
   3993000   284.37868      0.0054122779   3.7316238      705.55134     -13.210299      692.34104    
   3994000   281.97197      0.0054122779   0.1264876      699.58022     -13.108012      686.47221    
   3995000   310.04191      0.0054122779   1.7662281      769.22252     -12.668678      756.55384    
   3996000   310.55022      0.0054122779   3.6184267      770.48365     -9.2292575      761.25439    
   3997000   303.09589      0.0054122779   5.8905567      751.98926     -11.107625      740.88164    
   3998000   301.63992      0.0054122779   6.2434217      748.37696     -9.3064933      739.07047    
   3999000   297.73226      0.0054122779   2.6653787      738.68195     -10.221055      728.46089    
   4000000   293.65264      0.0054122779   1.406758       728.5603      -9.4524562      719.10784    
Loop time of 19886.5 on 1 procs for 4000000 steps with 1500 atoms

Performance: 4.345 ns/day, 5.524 hours/ns, 201.142 timesteps/s, 301.713 katom-step/s
99.3% CPU use with 1 MPI tasks x 1 OpenMP threads

MPI task timing breakdown:
Section |  min time  |  avg time  |  max time  |%varavg| %total
---------------------------------------------------------------
Pair    | 1063.5     | 1063.5     | 1063.5     |   0.0 |  5.35
Bond    | 191.94     | 191.94     | 191.94     |   0.0 |  0.97
Kspace  | 17638      | 17638      | 17638      |   0.0 | 88.70
Neigh   | 0.067836   | 0.067836   | 0.067836   |   0.0 |  0.00
Comm    | 51.397     | 51.397     | 51.397     |   0.0 |  0.26
Output  | 0.14312    | 0.14312    | 0.14312    |   0.0 |  0.00
Modify  | 911.41     | 911.41     | 911.41     |   0.0 |  4.58
Other   |            | 29.53      |            |       |  0.15

Nlocal:           1500 ave        1500 max        1500 min
Histogram: 1 0 0 0 0 0 0 0 0 0
Nghost:            753 ave         753 max         753 min
Histogram: 1 0 0 0 0 0 0 0 0 0
Neighs:              0 ave           0 max           0 min
Histogram: 1 0 0 0 0 0 0 0 0 0

Total # of neighbors = 0
Ave neighs/atom = 0
Ave special neighs/atom = 2
Neighbor list builds = 22149
Dangerous builds = 0
write_data	last_conf.data pair ij
System init for write_data ...
PPPM initialization ...
  using 12-bit tables for long-range coulomb (src/kspace.cpp:342)
  G vector (1/distance) = 0.15699891
  grid = 36 36 36
  stencil order = 5
  estimated absolute RMS force accuracy = 0.028458409
  estimated relative force accuracy = 8.5701652e-05
  using double precision FFTW3
  3d grid and FFT values/proc = 68921 46656
Generated 1 of 1 mixed pair_coeff terms from arithmetic mixing rule
Total wall time: 5:31:26
