LAMMPS data file via write_data, version 29 Aug 2024, timestep = 0, units = real

1500 atoms
2 atom types
1000 bonds
1 bond types
500 angles
1 angle types

0 97 xlo xhi
0 97 ylo yhi
0 97 zlo zhi

Masses

1 12.0107
2 15.9994

PairIJ Coeffs # lj/cut/coul/long/gpu

1 1 0.053649 2.8 12
1 2 0.0917684 2.925 12
2 2 0.156973 3.05 12

Bond Coeffs # harmonic

1 0 1.16

Angle Coeffs # harmonic

1 0 180

Atoms # full

1 1 1 0.7 7.146637125940359 27.530175679610192 9.662647208507474 0 0 0
2 1 2 -0.35 6.138976381698143 27.76786170524375 9.139459691710917 0 0 0
3 1 2 -0.35 8.154297870182575 27.292489653976634 10.185834725304032 0 0 0
4 2 1 0.7 22.111633385117926 23.22230367698814 66.25789913966223 0 0 0
5 2 2 -0.35 22.45895324124751 23.72287076780035 65.27078136293348 0 0 0
6 2 2 -0.35 21.764313528988342 22.72173658617593 67.24501691639098 0 0 0
7 3 1 0.7 36.51084030303678 15.69297313908719 8.799548638425557 0 0 0
8 3 2 -0.35 36.048231448083804 14.62920992425068 8.798615857749525 0 0 0
9 3 2 -0.35 36.973449157989755 16.7567363539237 8.80048141910159 0 0 0
10 4 1 0.7 66.01396601834053 10.726870249364 60.50828106073117 0 0 0
11 4 2 -0.35 64.92890670058152 10.925914187515161 60.86692822387294 0 0 0
12 4 2 -0.35 67.09902533609953 10.527826311212838 60.1496338975894 0 0 0
13 5 1 0.7 14.679787708762936 52.19202117863671 20.299949347181222 0 0 0
14 5 2 -0.35 14.507128933718514 52.47699962815694 21.411064206549597 0 0 0
15 5 2 -0.35 14.852446483807357 51.907042729116476 19.188834487812848 0 0 0
16 6 1 0.7 32.2486780747998 64.53240316013452 39.09991238084618 0 0 0
17 6 2 -0.35 31.161203890410384 64.70596280532477 38.73538947642451 0 0 0
18 6 2 -0.35 33.33615225918921 64.35884351494427 39.46443528526785 0 0 0
19 7 1 0.7 74.227384881688 22.657706530139645 83.07365205701144 0 0 0
20 7 2 -0.35 73.20601228212283 22.92038264638697 82.59053791851959 0 0 0
21 7 2 -0.35 75.24875748125316 22.39503041389232 83.5567661955033 0 0 0
22 8 1 0.7 0.8701221914357143 74.14367146005094 70.68622907609037 0 0 0
23 8 2 -0.35 0.3952287917060109 75.16110374187433 70.97761852476144 0 0 0
24 8 2 -0.35 1.3450155911654178 73.12623917822755 70.3948396274193 0 0 0
25 9 1 0.7 64.4520818509404 47.139668755298324 77.41277029896749 0 0 0
26 9 2 -0.35 64.11132484789162 47.851687330452044 76.5627619381208 0 0 0
27 9 2 -0.35 64.79283885398918 46.4276501801446 78.26277865981417 0 0 0
28 10 1 0.7 15.430414746715881 57.98064805380099 18.751840233221575 0 0 0
29 10 2 -0.35 15.436994056690224 57.02110607958373 19.40363461214449 0 0 0
30 10 2 -0.35 15.423835436741538 58.94019002801825 18.10004585429866 0 0 0
31 11 1 0.7 9.178799755023235 38.08748267548507 33.32132687760579 0 0 0
32 11 2 -0.35 8.784388783470689 38.058304596637406 34.411826132641636 0 0 0
33 11 2 -0.35 9.57321072657578 38.116660754332734 32.23082762256995 0 0 0
34 12 1 0.7 50.54083192047702 10.762087457236875 70.40389378015134 0 0 0
35 12 2 -0.35 49.62149314185025 11.445495748518463 70.58656648616028 0 0 0
36 12 2 -0.35 51.460170699103784 10.078679165955288 70.22122107414239 0 0 0
37 13 1 0.7 72.24276300344745 35.117798941264766 76.84680583693404 0 0 0
38 13 2 -0.35 72.32773318026959 33.966956383256296 76.72873181046194 0 0 0
39 13 2 -0.35 72.15779282662531 36.26864149927324 76.96487986340614 0 0 0
40 14 1 0.7 9.265701350414055 43.642596409024016 84.11784646665576 0 0 0
41 14 2 -0.35 8.564681944904997 43.30176446327951 84.97691886049678 0 0 0
42 14 2 -0.35 9.966720755923113 43.98342835476852 83.25877407281475 0 0 0
43 15 1 0.7 90.64556508355102 95.01235924196074 58.72177963411518 0 0 0
44 15 2 -0.35 89.85892800633722 95.01847421012094 57.86927466878247 0 0 0
45 15 2 -0.35 91.43220216076482 95.00624427380053 59.57428459944789 0 0 0
46 16 1 0.7 58.95031057389002 19.86981536954167 77.98691588686171 0 0 0
47 16 2 -0.35 57.80078327026912 19.71964004614612 77.94648878613586 0 0 0
48 16 2 -0.35 60.09983787751092 20.019990692937217 78.02734298758756 0 0 0
49 17 1 0.7 62.095310484569204 12.883314154522175 25.86099505418027 0 0 0
50 17 2 -0.35 61.123584014591906 13.455002924366116 26.133977870452252 0 0 0
51 17 2 -0.35 63.0670369545465 12.311625384678234 25.588012237908284 0 0 0
52 18 1 0.7 85.7438756077289 65.31733909962576 39.51824740996503 0 0 0
53 18 2 -0.35 84.92823707084042 65.9391245530707 38.97629111373192 0 0 0
54 18 2 -0.35 86.55951414461737 64.69555364618081 40.06020370619814 0 0 0
55 19 1 0.7 24.18421928220625 34.17347604044409 16.611811743868426 0 0 0
56 19 2 -0.35 24.004478643698263 34.4850946421987 15.50900298895702 0 0 0
57 19 2 -0.35 24.363959920714237 33.86185743868948 17.71462049877983 0 0 0
58 20 1 0.7 28.719979196656485 24.69035820555424 4.850360750151035 0 0 0
59 20 2 -0.35 29.640438323087363 24.625666329124698 5.553332981248486 0 0 0
60 20 2 -0.35 27.799520070225608 24.755050081983782 4.1473885190535835 0 0 0
61 21 1 0.7 40.01312778844178 96.63874034101084 39.30891136932602 0 0 0
62 21 2 -0.35 40.822764459570834 95.91026985597708 39.70818472580968 0 0 0
63 21 2 -0.35 39.20349111731272 0.3672108260446123 38.90963801284236 0 1 0
64 22 1 0.7 94.87338426237618 50.96929775642664 33.98739226254978 0 0 0
65 22 2 -0.35 93.94807924984637 50.28492435449318 33.84232786128873 0 0 0
66 22 2 -0.35 95.79868927490598 51.653671158360105 34.132456663810835 0 0 0
67 23 1 0.7 90.10175667428493 73.22442470687648 43.906048472926976 0 0 0
68 23 2 -0.35 90.86439541953139 73.82413624726165 43.270180394959745 0 0 0
69 23 2 -0.35 89.33911792903847 72.6247131664913 44.54191655089421 0 0 0
70 24 1 0.7 49.9566844836607 86.99611688544793 62.736493723344296 0 0 0
71 24 2 -0.35 49.13724676850076 87.73599369977124 63.092448960137155 0 0 0
72 24 2 -0.35 50.776122198820644 86.25624007112462 62.38053848655144 0 0 0
73 25 1 0.7 22.25000824744348 20.888614782546 31.948650250653106 0 0 0
74 25 2 -0.35 21.206187580515287 20.405248523913876 31.798999071875354 0 0 0
75 25 2 -0.35 23.29382891437167 21.371981041178124 32.09830142943086 0 0 0
76 26 1 0.7 65.96476272678225 56.767149029191195 90.47373361628212 0 0 0
77 26 2 -0.35 64.88369658336487 57.06405735421317 90.17583860106821 0 0 0
78 26 2 -0.35 67.04582887019964 56.47024070416922 90.77162863149603 0 0 0
79 27 1 0.7 20.040888853390182 43.2189589288174 45.04271663401402 0 0 0
80 27 2 -0.35 19.194204232326097 43.14472235634438 44.25327753961786 0 0 0
81 27 2 -0.35 20.887573474454268 43.29319550129042 45.83215572841018 0 0 0
82 28 1 0.7 44.938467873697384 38.82955323198324 89.30116994227338 0 0 0
83 28 2 -0.35 44.1081711443936 39.38410554439957 89.89166047911638 0 0 0
84 28 2 -0.35 45.768764603001166 38.275000919566914 88.71067940543037 0 0 0
85 29 1 0.7 3.7632197885602805 4.434986332633992 42.81529257950154 0 0 0
86 29 2 -0.35 2.603847113718736 4.459780156810679 42.84427994077256 0 0 0
87 29 2 -0.35 4.922592463401825 4.410192508457304 42.78630521823052 0 0 0
88 30 1 0.7 50.62238368234708 23.402549207397993 88.64452873805749 0 0 0
89 30 2 -0.35 49.702558193010766 23.451583519426464 87.93946370175863 0 0 0
90 30 2 -0.35 51.54220917168339 23.35351489536952 89.34959377435635 0 0 0
91 31 1 0.7 25.59450053218496 68.77044443263227 69.85957925061675 0 0 0
92 31 2 -0.35 25.906680673818915 67.78490242025433 69.33341340128078 0 0 0
93 31 2 -0.35 25.282320390551003 69.75598644501022 70.38574509995271 0 0 0
94 32 1 0.7 41.948465115832384 31.853201794835368 13.762565798015597 0 0 0
95 32 2 -0.35 41.15709384136828 31.005747046659074 13.728625324440252 0 0 0
96 32 2 -0.35 42.73983639029649 32.70065654301166 13.796506271590943 0 0 0
97 33 1 0.7 59.44336724814185 61.673339519963285 1.8173120230516941 0 0 0
98 33 2 -0.35 58.30223573605017 61.50997375833755 1.9466584572499626 0 0 0
99 33 2 -0.35 60.58449876023352 61.83670528158902 1.6879655888534257 0 0 0
100 34 1 0.7 85.56317142982184 35.22222101559034 85.86860902694455 0 0 0
101 34 2 -0.35 84.56455380654384 35.169813396736515 85.28071763904651 0 0 0
102 34 2 -0.35 86.56178905309983 35.27462863444417 86.4565004148426 0 0 0
103 35 1 0.7 27.71191585702445 57.169809009958904 67.98003037924879 0 0 0
104 35 2 -0.35 26.56570429629859 57.3480111006232 67.97346738136181 0 0 0
105 35 2 -0.35 28.85812741775031 56.99160691929461 67.98659337713576 0 0 0
106 36 1 0.7 74.37058403453351 4.405868404733887 38.430278362441 0 0 0
107 36 2 -0.35 73.38995123727702 3.8510202108326457 38.706145719461446 0 0 0
108 36 2 -0.35 75.35121683179 4.960716598635129 38.154411005420556 0 0 0
109 37 1 0.7 71.68843754599264 30.56983549826305 75.22521930710656 0 0 0
110 37 2 -0.35 70.5292308826887 30.567256493988662 75.18240271582852 0 0 0
111 37 2 -0.35 72.84764420929659 30.572414502537438 75.2680358983846 0 0 0
112 38 1 0.7 12.2608945398875 40.85453188924795 76.1174625903915 0 0 0
113 38 2 -0.35 12.303882648865205 41.46381407395394 75.13129463213772 0 0 0
114 38 2 -0.35 12.217906430909796 40.24524970454196 77.10363054864527 0 0 0
115 39 1 0.7 70.19375670989685 32.46902323629196 81.87353235896376 0 0 0
116 39 2 -0.35 69.40516984549343 31.754452244398085 81.41188416516874 0 0 0
117 39 2 -0.35 70.98234357430026 33.18359422818584 82.33518055275877 0 0 0
118 40 1 0.7 6.458357103848066 2.6078443744256368 83.04040097167733 0 0 0
119 40 2 -0.35 6.206678844356701 2.6484252653374867 84.17204192400814 0 0 0
120 40 2 -0.35 6.71003536333943 2.567263483513787 81.90876001934652 0 0 0
121 41 1 0.7 24.019130981070518 72.53439885216504 86.64150833787467 0 0 0
122 41 2 -0.35 23.498098550330454 73.2871201261681 85.9290928061937 0 0 0
123 41 2 -0.35 24.540163411810582 71.78167757816198 87.35392386955564 0 0 0
124 42 1 0.7 19.830634659542998 1.4767229391619203 84.2824384943966 0 0 0
125 42 2 -0.35 18.688014329401284 1.3102424560865076 84.39335751847192 0 0 0
126 42 2 -0.35 20.973254989684712 1.643203422237333 84.17151947032129 0 0 0
127 43 1 0.7 43.943775323659075 5.031864738106664 83.55065335871217 0 0 0
128 43 2 -0.35 45.04883489566658 5.089631045274658 83.20264991609879 0 0 0
129 43 2 -0.35 42.83871575165157 4.974098430938671 83.89865680132554 0 0 0
130 44 1 0.7 63.830999875362494 84.61490521748313 5.711990238964553 0 0 0
131 44 2 -0.35 63.21022101970809 85.49722702419874 5.285678332297016 0 0 0
132 44 2 -0.35 64.4517787310169 83.73258341076752 6.138302145632091 0 0 0
133 45 1 0.7 68.41994627724398 96.03708163976533 15.231119535971024 0 0 0
134 45 2 -0.35 67.29798168784315 95.80508832237297 15.412708524667783 0 0 0
135 45 2 -0.35 69.54191086664481 96.2690749571577 15.049530547274264 0 0 0
136 46 1 0.7 6.426041064982321 41.47217915787929 77.91510647717635 0 0 0
137 46 2 -0.35 6.118292192534076 41.12945001354949 78.97973193485328 0 0 0
138 46 2 -0.35 6.733789937430567 41.81490830220909 76.85048101949943 0 0 0
139 47 1 0.7 19.194561902989893 78.00190355116591 22.992984445296685 0 0 0
140 47 2 -0.35 18.47095196523532 78.15016331122975 23.88741594157163 0 0 0
141 47 2 -0.35 19.918171840744467 77.85364379110207 22.09855294902174 0 0 0
142 48 1 0.7 92.08957210140748 17.43830835560258 48.64853261255126 0 0 0
143 48 2 -0.35 91.0795237541097 16.87333082105399 48.72728997142281 0 0 0
144 48 2 -0.35 93.09962044870527 18.00328589015117 48.5697752536797 0 0 0
145 49 1 0.7 22.887619148887516 67.21503535249039 21.09916930603756 0 0 0
146 49 2 -0.35 23.06779092010341 66.32430093594655 20.378246056279835 0 0 0
147 49 2 -0.35 22.707447377671624 68.10576976903423 21.820092555795284 0 0 0
148 50 1 0.7 78.73852657328291 84.41611716589709 59.681207232494465 0 0 0
149 50 2 -0.35 78.06873445789188 83.62349715064593 60.19960093768701 0 0 0
150 50 2 -0.35 79.40831868867394 85.20873718114825 59.16281352730192 0 0 0
151 51 1 0.7 82.04995653454678 61.619476127726706 66.53527870286968 0 0 0
152 51 2 -0.35 81.22604676788569 62.17441475377923 67.13429107145268 0 0 0
153 51 2 -0.35 82.87386630120787 61.06453750167418 65.93626633428667 0 0 0
154 52 1 0.7 42.429159130635284 59.87750858714688 83.28682417761853 0 0 0
155 52 2 -0.35 42.378012671331135 58.718668437043 83.29540008619233 0 0 0
156 52 2 -0.35 42.480305589939434 61.036348737250755 83.27824826904472 0 0 0
157 53 1 0.7 91.65395323450396 67.99201230797544 81.75086014333687 0 0 0
158 53 2 -0.35 90.61428187308414 67.91416761549927 81.24230959118226 0 0 0
159 53 2 -0.35 92.69362459592378 68.06985700045162 82.25941069549147 0 0 0
160 54 1 0.7 78.70642906274014 29.953257473629556 91.39835929190664 0 0 0
161 54 2 -0.35 77.98621878754535 30.82272586920411 91.66467089248171 0 0 0
162 54 2 -0.35 79.42663933793493 29.083789078055002 91.13204769133158 0 0 0
163 55 1 0.7 40.224619074829214 62.17279065454974 54.09253101753654 0 0 0
164 55 2 -0.35 39.40137531328557 62.00586887406452 54.8925352851996 0 0 0
165 55 2 -0.35 41.04786283637286 62.33971243503497 53.292526749873474 0 0 0
166 56 1 0.7 49.16881173670703 37.218858834923644 81.36043856170048 0 0 0
167 56 2 -0.35 48.0297557511419 37.163980458802484 81.14797721090332 0 0 0
168 56 2 -0.35 50.30786772227216 37.2737372110448 81.57289991249763 0 0 0
169 57 1 0.7 15.89090650011362 37.46554740959105 56.4553129968491 0 0 0
170 57 2 -0.35 14.782564425128834 37.53330290011652 56.11977307624043 0 0 0
171 57 2 -0.35 16.999248575098406 37.39779191906559 56.79085291745778 0 0 0
172 58 1 0.7 87.44553804278632 50.157885109613595 73.57503727570877 0 0 0
173 58 2 -0.35 87.81858583477674 49.149230453756196 74.00983737932913 0 0 0
174 58 2 -0.35 87.07249025079591 51.16653976547099 73.1402371720884 0 0 0
175 59 1 0.7 19.65149283718853 94.64011462761094 10.406546257159928 0 0 0
176 59 2 -0.35 19.395455779967666 93.58335018749804 10.002449804017173 0 0 0
177 59 2 -0.35 19.907529894409397 95.69687906772384 10.810642710302682 0 0 0
178 60 1 0.7 11.822944086893902 52.22126842579864 26.8584323976461 0 0 0
179 60 2 -0.35 10.803136359133914 51.95600073067362 26.37343214164197 0 0 0
180 60 2 -0.35 12.842751814653889 52.48653612092366 27.343432653650233 0 0 0
181 61 1 0.7 68.67330723799454 86.27474897414201 63.7060084048221 0 0 0
182 61 2 -0.35 67.60293183169486 86.56943783523229 64.0422448762795 0 0 0
183 61 2 -0.35 69.74368264429421 85.98006011305174 63.3697719333647 0 0 0
184 62 1 0.7 20.88325984491187 38.948213433822716 46.623182258393236 0 0 0
185 62 2 -0.35 21.447312640414626 39.75932455125172 47.231082907404726 0 0 0
186 62 2 -0.35 20.319207049409112 38.13710231639371 46.015281609381745 0 0 0
187 63 1 0.7 29.824216815095497 56.61201130999811 5.074087138322223 0 0 0
188 63 2 -0.35 28.760348017830378 57.0372007202409 4.8924359681551755 0 0 0
189 63 2 -0.35 30.888085612360616 56.18682189975532 5.25573830848927 0 0 0
190 64 1 0.7 17.182533781594845 17.845267264566044 1.4069155614855307 0 0 0
191 64 2 -0.35 17.222781111266908 18.752406677584542 0.6850580701461925 0 0 0
192 64 2 -0.35 17.142286451922782 16.938127851547545 2.1287730528248687 0 0 0
193 65 1 0.7 75.02984188731287 26.552600067366193 69.54933222362274 0 0 0
194 65 2 -0.35 75.29985013959481 25.938793744690454 70.49587189101283 0 0 0
195 65 2 -0.35 74.75983363503093 27.16640639004193 68.60279255623266 0 0 0
196 66 1 0.7 65.62668242753794 0.6515596302466279 86.76270555507517 0 0 0
197 66 2 -0.35 64.88387502496671 0.878387189778054 85.90108706588033 0 0 0
198 66 2 -0.35 66.36948983010917 0.4247320707152018 87.62432404427001 0 0 0
199 67 1 0.7 19.792264148496216 35.58354377587491 47.620241129594035 0 0 0
200 67 2 -0.35 19.396038647185627 34.592198935615485 47.166544358829476 0 0 0
201 67 2 -0.35 20.188489649806804 36.57488861613433 48.073937900358594 0 0 0
202 68 1 0.7 6.392665086962592 62.52211658028985 8.213364931388462 0 0 0
203 68 2 -0.35 5.7379671283107765 63.187819610141354 7.525026309063905 0 0 0
204 68 2 -0.35 7.047363045614407 61.85641355043834 8.90170355371302 0 0 0
205 69 1 0.7 11.02440184588749 17.12182383105244 64.49312849831448 0 0 0
206 69 2 -0.35 9.922033076789385 17.178033982109195 64.8498125543575 0 0 0
207 69 2 -0.35 12.126770614985597 17.065613679995682 64.13644444227145 0 0 0
208 70 1 0.7 58.01067117136469 38.35037712629437 86.78836162937263 0 0 0
209 70 2 -0.35 56.89690080251957 38.42849343199407 86.47369766850895 0 0 0
210 70 2 -0.35 59.124441540209816 38.27226082059467 87.10302559023631 0 0 0
211 71 1 0.7 62.99390486580967 80.55907966315704 30.451898680278983 0 0 0
212 71 2 -0.35 64.03722603639213 80.12000367067739 30.70545973376013 0 0 0
213 71 2 -0.35 61.950583695227216 80.99815565563668 30.198337626797837 0 0 0
214 72 1 0.7 33.06111944888771 42.234577455667115 87.54329739722577 0 0 0
215 72 2 -0.35 31.90387497997998 42.25286028179052 87.62108542619819 0 0 0
216 72 2 -0.35 34.218363917795436 42.21629462954371 87.46550936825335 0 0 0
217 73 1 0.7 44.19935517348319 32.56240073198565 2.2691024827161352 0 0 0
218 73 2 -0.35 44.14746803295071 33.6563755045348 2.6513679947276083 0 0 0
219 73 2 -0.35 44.25124231401567 31.468425959436495 1.8868369707046622 0 0 0
220 74 1 0.7 15.805427010080509 55.81175842313643 38.22381765405825 0 0 0
221 74 2 -0.35 14.656076264885174 55.90737363619899 38.09951722948162 0 0 0
222 74 2 -0.35 16.954777755275842 55.716143210073874 38.34811807863488 0 0 0
223 75 1 0.7 93.70331175704641 76.56070067899334 50.69631184111177 0 0 0
224 75 2 -0.35 93.16602188818146 75.86837677218847 49.93630710107291 0 0 0
225 75 2 -0.35 94.24060162591135 77.25302458579822 51.45631658115063 0 0 0
226 76 1 0.7 4.913113565609378 27.699697196809435 45.81078677615653 0 0 0
227 76 2 -0.35 5.870527797535113 28.02836656640237 46.37729752980331 0 0 0
228 76 2 -0.35 3.955699333683643 27.3710278272165 45.24427602250976 0 0 0
229 77 1 0.7 52.89334686281781 70.48072337893802 5.517829811441633 0 0 0
230 77 2 -0.35 52.0738163441752 71.08623060069168 4.963455629667677 0 0 0
231 77 2 -0.35 53.712877381460416 69.87521615718437 6.072203993215589 0 0 0
232 78 1 0.7 6.1656408995229945 29.926598282962384 31.337341748800753 0 0 0
233 78 2 -0.35 6.301593488069167 29.419339867433376 30.303027583016203 0 0 0
234 78 2 -0.35 6.029688310976822 30.433856698491393 32.371655914585304 0 0 0
235 79 1 0.7 73.70277209426405 32.49058829596759 56.317490327319824 0 0 0
236 79 2 -0.35 72.78983500517586 31.866771221547495 55.96677943637241 0 0 0
237 79 2 -0.35 74.61570918335224 33.114405370387686 56.668201218267235 0 0 0
238 80 1 0.7 2.0599312642868286 89.2647588687319 70.80230677723992 0 0 0
239 80 2 -0.35 2.995040613217851 88.6716444377817 71.14782924733471 0 0 0
240 80 2 -0.35 1.1248219153558061 89.85787329968211 70.45678430714513 0 0 0
241 81 1 0.7 75.37000507133548 20.675233935320392 34.65675092984771 0 0 0
242 81 2 -0.35 74.62600134401463 21.51102125504208 34.96255807483472 0 0 0
243 81 2 -0.35 76.11400879865634 19.839446615598703 34.3509437848607 0 0 0
244 82 1 0.7 88.01287795045081 79.43971322683605 35.26020343334424 0 0 0
245 82 2 -0.35 88.28827679825257 78.40001552650013 35.69469643276503 0 0 0
246 82 2 -0.35 87.73747910264906 80.47941092717197 34.82571043392345 0 0 0
247 83 1 0.7 45.23910421656403 47.62456779164475 79.11087417328305 0 0 0
248 83 2 -0.35 44.355826554846786 47.673191709420415 78.36050340697385 0 0 0
249 83 2 -0.35 46.122381878281274 47.575943873869086 79.86124493959225 0 0 0
250 84 1 0.7 37.46223036826692 0.7057994621367192 28.371560131838343 0 0 0
251 84 2 -0.35 38.613336778499104 0.5624641820893144 28.36855516659384 0 0 0
252 84 2 -0.35 36.31112395803474 0.849134742184124 28.374565097082847 0 0 0
253 85 1 0.7 85.81113580698666 31.759508024789163 88.0513726314769 0 0 0
254 85 2 -0.35 86.71711342190609 31.079408219553706 87.80183542746998 0 0 0
255 85 2 -0.35 84.90515819206722 32.43960783002462 88.30090983548381 0 0 0
256 86 1 0.7 47.41981723225667 32.86822253785479 1.2161937254556425 0 0 0
257 86 2 -0.35 46.78446657660532 33.18336279748513 2.1341349878049938 0 0 0
258 86 2 -0.35 48.05516788790802 32.55308227822445 0.29825246310629105 0 0 0
259 87 1 0.7 70.56794373298433 16.430320267765932 82.3927403420176 0 0 0
260 87 2 -0.35 70.25450830211118 15.921281439037852 83.3868417963574 0 0 0
261 87 2 -0.35 70.88137916385749 16.939359096494012 81.3986388876778 0 0 0
262 88 1 0.7 2.7869282899363563 85.90376896034171 36.64491646301231 0 0 0
263 88 2 -0.35 2.791579016434895 85.64491192981045 35.514177143590025 0 0 0
264 88 2 -0.35 2.782277563437818 86.16262599087297 37.77565578243459 0 0 0
265 89 1 0.7 38.110993847768285 40.473599441570045 75.7858144677178 0 0 0
266 89 2 -0.35 37.33489918766288 40.966264261696416 75.07831291042925 0 0 0
267 89 2 -0.35 38.88708850787369 39.98093462144367 76.49331602500635 0 0 0
268 90 1 0.7 25.183758933182695 52.43639000153001 53.406755714866684 0 0 0
269 90 2 -0.35 25.937896807423318 51.66063530043655 53.82518218435355 0 0 0
270 90 2 -0.35 24.42962105894207 53.21214470262346 52.988329245379816 0 0 0
271 91 1 0.7 66.34329976436835 16.839139738976556 66.42159297895692 0 0 0
272 91 2 -0.35 65.3372817707521 16.640647356177077 65.87925676359701 0 0 0
273 91 2 -0.35 67.34931775798461 17.037632121776035 66.96392919431683 0 0 0
274 92 1 0.7 71.71319732894804 58.707507629742615 13.080733084157451 0 0 0
275 92 2 -0.35 70.82721763774599 58.41501021980043 13.76999736725547 0 0 0
276 92 2 -0.35 72.5991770201501 59.0000050396848 12.391468801059432 0 0 0
277 93 1 0.7 45.88094543427273 68.04991382176517 84.90160240740589 0 0 0
278 93 2 -0.35 44.72194941171387 68.00272550587606 84.91167626149884 0 0 0
279 93 2 -0.35 47.03994145683159 68.09710213765429 84.89152855331294 0 0 0
280 94 1 0.7 71.2316612709461 16.530980791212517 28.194157908761017 0 0 0
281 94 2 -0.35 71.32111632921826 15.868683543478193 29.142292998393852 0 0 0
282 94 2 -0.35 71.14220621267395 17.19327803894684 27.246022819128182 0 0 0
283 95 1 0.7 14.211972546396765 46.622587290416746 19.824590034235545 0 0 0
284 95 2 -0.35 13.06108077658044 46.48389350558849 19.867159603402456 0 0 0
285 95 2 -0.35 15.362864316213091 46.761281075245 19.782020465068634 0 0 0
286 96 1 0.7 93.88470539678107 21.243603699488382 81.24737730121583 0 0 0
287 96 2 -0.35 93.26652461654935 21.578729618486577 82.16995149409559 0 0 0
288 96 2 -0.35 94.5028861770128 20.908477780490188 80.32480310833608 0 0 0
289 97 1 0.7 55.67030153454761 85.75789114169677 9.876418497821511 0 0 0
290 97 2 -0.35 55.662303886057096 86.21935882808916 8.81218938149633 0 0 0
291 97 2 -0.35 55.67829918303813 85.29642345530439 10.940647614146693 0 0 0
292 98 1 0.7 25.965692886135397 2.4003372776323637 87.4686251671373 0 0 0
293 98 2 -0.35 25.674242478076412 1.8165803373549605 88.427731258412 0 0 0
294 98 2 -0.35 26.257143294194382 2.984094217909767 86.50951907586261 0 0 0
295 99 1 0.7 50.18318407665155 13.77477628261539 70.66498191685648 0 0 0
296 99 2 -0.35 49.08588245907333 13.499124481902951 70.4089638611959 0 0 0
297 99 2 -0.35 51.28048569422977 14.050428083327828 70.92099997251705 0 0 0
298 100 1 0.7 95.35107660682456 28.54453090044881 82.93084384311496 0 0 0
299 100 2 -0.35 95.08348608714337 29.661404421347605 82.76778295849857 0 0 0
300 100 2 -0.35 95.61866712650576 27.427657379550013 83.09390472773134 0 0 0
301 101 1 0.7 25.692471233053354 66.36401392769255 73.98208272875384 0 0 0
302 101 2 -0.35 24.821335129960936 66.26864595484872 73.22206507129803 0 0 0
303 101 2 -0.35 26.563607336145772 66.45938190053639 74.74210038620964 0 0 0
304 102 1 0.7 70.86442216572557 52.34333934976875 41.50445156335107 0 0 0
305 102 2 -0.35 71.95974259655245 52.72518837574502 41.496421919883815 0 0 0
306 102 2 -0.35 69.7691017348987 51.961490323792475 41.51248120681832 0 0 0
307 103 1 0.7 38.31742524137601 17.966031806527653 91.09657231024306 0 0 0
308 103 2 -0.35 37.29132206201276 17.426353286634274 91.05837073349119 0 0 0
309 103 2 -0.35 39.343528420739254 18.50571032642103 91.13477388699494 0 0 0
310 104 1 0.7 12.090818255250724 92.38241599890516 89.26569359901626 0 0 0
311 104 2 -0.35 10.93122339719713 92.40425611434132 89.24418140402362 0 0 0
312 104 2 -0.35 13.250413113304319 92.360575883469 89.2872057940089 0 0 0
313 105 1 0.7 86.51231866633162 79.5398250355105 68.83937182502791 0 0 0
314 105 2 -0.35 85.63237546690038 80.18588378701324 68.44706065340335 0 0 0
315 105 2 -0.35 87.39226186576286 78.89376628400777 69.23168299665247 0 0 0
316 106 1 0.7 64.3222632442239 96.27834567114633 93.15569495649808 0 0 0
317 106 2 -0.35 63.19223417075806 96.19977185295961 92.9057740725818 0 0 0
318 106 2 -0.35 65.45229231768974 96.35691948933304 93.40561584041436 0 0 0
319 107 1 0.7 87.76513386320562 86.60483889682445 82.52733892832293 0 0 0
320 107 2 -0.35 88.46412637638274 85.68736085652455 82.65080354710015 0 0 0
321 107 2 -0.35 87.0661413500285 87.52231693712434 82.40387430954571 0 0 0
322 108 1 0.7 33.98536832350556 56.08541315797968 78.53894616455722 0 0 0
323 108 2 -0.35 35.13642112803639 56.12973974063104 78.67574015291986 0 0 0
324 108 2 -0.35 32.83431551897473 56.04108657532832 78.40215217619458 0 0 0
325 109 1 0.7 28.06818771318914 31.030895569841793 64.26184233103965 0 0 0
326 109 2 -0.35 26.92028005257234 31.132093035939743 64.1289247793295 0 0 0
327 109 2 -0.35 29.21609537380594 30.929698103743842 64.3947598827498 0 0 0
328 110 1 0.7 50.784057783328024 24.65916439409329 62.57597152589632 0 0 0
329 110 2 -0.35 51.55530056090068 25.42438079418973 62.982454537921974 0 0 0
330 110 2 -0.35 50.012815005755364 23.893947993996846 62.16948851387067 0 0 0
331 111 1 0.7 40.35343573957376 93.19447501618157 60.5415969637882 0 0 0
332 111 2 -0.35 39.5145839727835 93.48723307811048 61.28739883461482 0 0 0
333 111 2 -0.35 41.192287506364025 92.90171695425266 59.79579509296158 0 0 0
334 112 1 0.7 89.62017038819387 30.20371437454769 32.82749302304699 0 0 0
335 112 2 -0.35 88.74494012867699 29.48889393018336 33.08941615135905 0 0 0
336 112 2 -0.35 90.49540064771075 30.918534818912022 32.56556989473493 0 0 0
337 113 1 0.7 92.67523835072072 63.73096056316559 52.25418512395312 0 0 0
338 113 2 -0.35 91.68308717977523 64.30772247762079 52.42324649749972 0 0 0
339 113 2 -0.35 93.66738952166621 63.15419864871039 52.085123750406524 0 0 0
340 114 1 0.7 95.0893782801411 92.18075433149038 94.93804935875258 0 0 0
341 114 2 -0.35 94.00672071082059 91.91838505549023 94.61460701365205 0 0 0
342 114 2 -0.35 96.17203584946162 92.44312360749052 95.26149170385311 0 0 0
343 115 1 0.7 70.79557255459743 59.18792511904051 36.457475713667215 0 0 0
344 115 2 -0.35 71.70919743561656 59.32227156496651 35.755449639187205 0 0 0
345 115 2 -0.35 69.8819476735783 59.0535786731145 37.159501788147224 0 0 0
346 116 1 0.7 88.79431960489336 21.129599442765862 8.177834565834065 0 0 0
347 116 2 -0.35 89.02339886740182 20.054567096997342 7.80712154065149 0 0 0
348 116 2 -0.35 88.5652403423849 22.204631788534382 8.54854759101664 0 0 0
349 117 1 0.7 92.86554797313434 61.26478446892685 22.2325692536461 0 0 0
350 117 2 -0.35 93.0560719352772 61.15310230383077 21.093785817759876 0 0 0
351 117 2 -0.35 92.67502401099148 61.376466634022925 23.371352689532326 0 0 0
352 118 1 0.7 18.791446030042806 92.83342692946708 6.40640355339572 0 0 0
353 118 2 -0.35 17.6368541931415 92.9062193287245 6.49136799755454 0 0 0
354 118 2 -0.35 19.946037866944113 92.76063453020966 6.321439109236901 0 0 0
355 119 1 0.7 2.4245219218658853 8.939940799931037 0.5850244409334959 0 0 0
356 119 2 -0.35 3.4216176456530047 9.366557097028947 0.9966051166896682 0 0 0
357 119 2 -0.35 1.427426198078766 8.513324502833127 0.17344376517732363 0 0 0
358 120 1 0.7 35.50577876926668 1.6237750652356888 33.787521416222454 0 0 0
359 120 2 -0.35 34.853725383562406 0.7393531549642284 34.15930665910249 0 0 0
360 120 2 -0.35 36.15783215497096 2.508196975507149 33.41573617334242 0 0 0
361 121 1 0.7 28.87244245078063 65.14027027000685 70.52242800524571 0 0 0
362 121 2 -0.35 27.827103027208775 64.65948699359735 70.66978108682673 0 0 0
363 121 2 -0.35 29.91778187435248 65.62105354641635 70.3750749236647 0 0 0
364 122 1 0.7 27.447484164707124 74.86635623260698 91.8492014253741 0 0 0
365 122 2 -0.35 26.494340860679575 74.27611402160223 91.55132229831806 0 0 0
366 122 2 -0.35 28.400627468734672 75.45659844361172 92.14708055243015 0 0 0
367 123 1 0.7 51.52835626272874 21.08370768189603 12.875009626557588 0 0 0
368 123 2 -0.35 51.51936438705293 21.618089229465568 11.845468220013384 0 0 0
369 123 2 -0.35 51.53734813840455 20.549326134326492 13.904551033101793 0 0 0
370 124 1 0.7 80.28679355340395 13.13925206015783 59.40937507264753 0 0 0
371 124 2 -0.35 79.13471602542799 13.236391966036233 59.50361523509823 0 0 0
372 124 2 -0.35 81.43887108137992 13.042112154279426 59.315134910196825 0 0 0
373 125 1 0.7 72.36684598697668 83.58050311709778 80.51588906232077 0 0 0
374 125 2 -0.35 71.48787649013846 83.9601956140279 79.86102554111736 0 0 0
375 125 2 -0.35 73.24581548381491 83.20081062016766 81.17075258352418 0 0 0
376 126 1 0.7 80.54747042504488 29.335433729149138 86.63468580955391 0 0 0
377 126 2 -0.35 79.90333778810384 28.439877690225433 86.99339533991889 0 0 0
378 126 2 -0.35 81.19160306198592 30.230989768072842 86.27597627918894 0 0 0
379 127 1 0.7 2.1644011727368464 2.090510188178397 21.20473271431622 0 0 0
380 127 2 -0.35 1.813939042405702 3.040293969534635 21.771025098051336 0 0 0
381 127 2 -0.35 2.5148633030679908 1.140726406822159 20.6384403305811 0 0 0
382 128 1 0.7 9.942729512668555 73.45491942039455 37.83069857108905 0 0 0
383 128 2 -0.35 9.034290719052134 72.93090403143026 37.3349699856904 0 0 0
384 128 2 -0.35 10.851168306284976 73.97893480935883 38.3264271564877 0 0 0
385 129 1 0.7 82.55088429364883 41.71232335582018 40.01864126977448 0 0 0
386 129 2 -0.35 81.49038033369199 42.17712993899361 40.088542565574166 0 0 0
387 129 2 -0.35 83.61138825360568 41.247516772646755 39.94873997397479 0 0 0
388 130 1 0.7 92.30382109959788 29.321220941525524 41.76036421943473 0 0 0
389 130 2 -0.35 91.23398177210716 29.095025466595192 41.373221583607545 0 0 0
390 130 2 -0.35 93.37366042708861 29.547416416455857 42.14750685526191 0 0 0
391 131 1 0.7 71.44143603948943 50.21551569887228 72.17235094642841 0 0 0
392 131 2 -0.35 70.71140841427184 49.42616139973721 72.60775817748475 0 0 0
393 131 2 -0.35 72.17146366470702 51.00486999800735 71.73694371537206 0 0 0
394 132 1 0.7 15.70235662241576 69.50775294169213 45.80369101967835 0 0 0
395 132 2 -0.35 15.406851583604956 70.20939058932181 46.67889464368027 0 0 0