LAMMPS data file via write_data, version 29 Aug 2024, timestep = 8000000, units = real

1500 atoms
2 atom types
1000 bonds
1 bond types
500 angles
1 angle types

0 97 xlo xhi
0 97 ylo yhi
0 97 zlo zhi

Masses

1 12.0107
2 15.9994

PairIJ Coeffs # lj/cut/coul/long/gpu

1 1 0.053649 2.8 12
1 2 0.0917684 2.925 12
2 2 0.156973 3.05 12

Bond Coeffs # harmonic

1 0 1.16

Angle Coeffs # harmonic

1 0 180

Atoms # full

956 319 2 -0.35 10.80649501198178 22.555042574285608 20.523005555862568 0 2 3
955 319 1 0.7 11.951495958723152 22.528597102043967 20.338958091984058 0 2 3
957 319 2 -0.35 13.096496905464523 22.502151629802327 20.154910628105547 0 2 3
1122 374 2 -0.35 20.108349112024005 9.55975274203431 24.011764077060867 -2 2 -2
1120 374 1 0.7 19.396836106569836 9.073750282387175 23.235136204596394 -2 2 -2
771 257 2 -0.35 12.128805097462823 18.18737566814259 15.779554150062431 -2 1 -4
1121 374 2 -0.35 18.685323101115667 8.587747822740042 22.45850833213192 -2 2 -2
769 257 1 0.7 13.111223068246238 17.570614245580664 15.787318061519748 -2 1 -4
665 222 2 -0.35 9.127069245356854 7.388218318938095 5.051316469406199 5 2 0
770 257 2 -0.35 14.093641039029652 16.95385282301874 15.795081972977066 -2 1 -4
664 222 1 0.7 8.154309341097408 6.8871387938163835 4.6662742922751805 5 2 0
1477 493 1 0.7 22.54390070605659 10.003523289097302 19.743595773677836 6 1 3
666 222 2 -0.35 7.18154943683796 6.386059268694671 4.281232115144162 5 2 0
700 234 1 0.7 15.505918076179707 9.789920501090197 19.822283932842556 9 0 0
701 234 2 -0.35 14.422330544341376 10.191804530889298 19.72264815896773 9 0 0
702 234 2 -0.35 16.58950560801804 9.388036471291095 19.921919706717382 9 0 0
1336 446 1 0.7 17.93338401115775 24.18671304200563 13.902661192127825 4 0 -7
1338 446 2 -0.35 18.935481450395883 23.60617277762005 13.968795326265933 4 0 -7
1337 446 2 -0.35 16.931286571919614 24.767253306391208 13.836527057989716 4 0 -7
393 131 2 -0.35 12.55400898245522 0.24152405707126617 13.005356149883525 -1 -1 3
391 131 1 0.7 12.512375216886468 0.2215152918791702 11.846276222148447 -1 -1 3
1478 493 2 -0.35 23.291737057385305 10.5788048071656 19.068768413090343 6 1 3
392 131 2 -0.35 12.470741451317714 0.20150652668707425 10.687196294413368 -1 -1 3
1270 424 1 0.7 20.701612214462543 1.490797921776411 6.438121603673381 10 -2 5
827 276 2 -0.35 9.5869197196605 6.463599992363184 13.697196704964558 5 1 -12
1272 424 2 -0.35 19.571939451095254 1.2895786333135524 6.267973886511978 10 -2 5
826 276 1 0.7 8.920134037706816 5.845328072377679 14.417430477640464 5 1 -12
828 276 2 -0.35 8.253348355753133 5.227056152392175 15.137664250316371 5 1 -12
1479 493 2 -0.35 21.796064354727875 9.428241771029006 20.41842313426533 6 1 3
1271 424 2 -0.35 21.83128497782983 1.6920172102392694 6.608269320834785 10 -2 5
20 7 2 -0.35 15.854509897435511 1.832049592958366 9.803706476306674 -1 10 -5
756 252 2 -0.35 15.09683827641096 10.586284350355553 23.275995656587533 -4 0 2
19 7 1 0.7 16.121692641082852 1.293608630630472 8.81159019704054 -1 10 -5
21 7 2 -0.35 16.388875384730195 0.7551676683025778 7.819473917774406 -1 10 -5
933 311 2 -0.35 20.83595027072228 0.5606109452086057 15.67559846530961 -3 -2 -1
754 252 1 0.7 14.746401078683895 9.694472477104897 23.929804002493555 -4 0 2
267 89 2 -0.35 21.801026314153667 8.420091966074427 96.90855634989944 1 1 0
205 69 1 0.7 27.116060837268215 18.657335329082645 20.735733683308865 -2 -4 6
206 69 2 -0.35 27.873203372257944 18.96011874998028 19.910714058246203 -2 -4 6
207 69 2 -0.35 26.358918302278486 18.354551908185012 21.560753308371527 -2 -4 6
842 281 2 -0.35 36.99334970769363 17.222789908632944 9.967308525326104 1 1 -5
782 261 2 -0.35 44.54940972591201 16.513825463183853 16.613796129440534 -3 3 -4
841 281 1 0.7 37.92146251288497 16.527242176988146 9.946815261998115 1 1 -5
781 261 1 0.7 43.548377889768446 15.98685465177763 16.87038339909993 -3 3 -4
783 261 2 -0.35 42.547346053624885 15.45988384037141 17.126970668759324 -3 3 -4
843 281 2 -0.35 38.84957531807631 15.831694445343347 9.926321998670126 1 1 -5
1369 457 1 0.7 49.25178640302896 96.64584468155788 10.86198831401175 1 -3 2
246 82 2 -0.35 43.11964986843721 4.725935498345743 13.64034304209377 1 13 -2
245 82 2 -0.35 44.06225639916107 4.741440286242339 11.52051933956651 1 13 -2
244 82 1 0.7 43.59095313379914 4.733687892294041 12.58043119083014 1 13 -2
1370 457 2 -0.35 48.83755477053412 0.5860502079883865 11.400528677130199 1 -2 2
913 305 1 0.7 66.3751500434846 13.057310766940121 12.325721132983725 4 -1 6
914 305 2 -0.35 66.9009095961834 13.575961441423248 13.22024803062444 4 -1 6
915 305 2 -0.35 65.84939049078578 12.538660092456993 11.43119423534301 4 -1 6
1394 465 2 -0.35 56.335813402704744 12.314633411485925 17.89777585496068 6 3 -12
1393 465 1 0.7 56.53344169302706 12.695948372696728 16.820212882684313 6 3 -12
1395 465 2 -0.35 56.73106998334937 13.077263333907531 15.742649910407945 6 3 -12
1380 460 2 -0.35 63.58887905255523 12.189667853079403 17.01129344421132 3 3 1
1378 460 1 0.7 63.87204120256909 12.84671330347172 17.924370917878758 3 3 1
1379 460 2 -0.35 64.15520335258296 13.503758753864037 18.837448391546197 3 3 1
1488 496 2 -0.35 65.4245763934159 23.50576664113531 12.32390206860817 -5 -6 -3
1486 496 1 0.7 65.40757223608333 22.650198389216428 11.540758515394097 -5 -6 -3
1487 496 2 -0.35 65.39056807875075 21.794630137297546 10.757614962180027 -5 -6 -3
1149 383 2 -0.35 52.16231794823469 23.330749311308875 17.12902932719813 -3 -5 -11
1147 383 1 0.7 51.98455143447227 24.011801552361305 16.20698436541868 -3 -5 -11
1108 370 1 0.7 50.05223611530471 12.635417681738382 9.813632773551383 -3 -11 5
1109 370 2 -0.35 49.36210172673291 11.898037039392047 9.243032813856848 -3 -11 5
1110 370 2 -0.35 50.74237050387651 13.372798324084714 10.384232733245916 -3 -11 5
710 237 2 -0.35 55.14670772666872 4.2167910822828105 8.658023542733238 -4 -2 -1
711 237 2 -0.35 54.76705674639908 5.773854814988633 10.335467331801338 -4 -2 -1
709 237 1 0.7 54.9568822365339 4.995322948635722 9.496745437267288 -4 -2 -1
1187 396 2 -0.35 60.69740430629208 15.683933283404054 12.89912111483308 -2 3 3
1186 396 1 0.7 59.710890968408464 15.544961754149464 13.49332507664458 -2 3 3
1188 396 2 -0.35 58.72437763052484 15.405990224894873 14.087529038456077 -2 3 3
1086 362 2 -0.35 65.61463610545177 6.539795790544218 19.747542076121192 4 -1 9
1084 362 1 0.7 65.77567292836201 6.427992933225375 18.604227918610505 4 -1 9
1085 362 2 -0.35 65.93670975127226 6.316190075906532 17.46091376109982 4 -1 9
52 18 1 0.7 89.44089171174488 9.251605170294846 10.375190169895747 4 -1 4
53 18 2 -0.35 89.39762181850439 9.877073571247005 9.399220397950009 4 -1 4
1205 402 2 -0.35 79.05427733777607 6.827320680978678 3.2417416807025234 -1 2 -4
1206 402 2 -0.35 76.89425108918753 5.992779708708939 3.3839667523643295 -1 2 -4
1204 402 1 0.7 77.9742642134818 6.410050194843809 3.3128542165334265 -1 2 -4
440 147 2 -0.35 94.2893261758355 10.368785515882557 25.2915934749409 -4 1 -2
314 105 2 -0.35 90.2992646109249 10.824503231359577 13.980273575140115 -1 -2 1
315 105 2 -0.35 91.46685044317172 11.037741852126764 15.973680862915556 -1 -2 1
313 105 1 0.7 90.88305752704831 10.93112254174317 14.976977219027836 -1 -2 1
543 181 2 -0.35 84.92273161304348 16.683252544616717 11.276510570277717 2 0 6
54 18 2 -0.35 89.48416160498537 8.626136769342686 11.351159941841484 4 -1 4
541 181 1 0.7 84.41743044041948 16.337690405602913 10.291189539838365 2 0 6
542 181 2 -0.35 83.91212926779548 15.99212826658911 9.305868509399014 2 0 6
610 204 1 0.7 76.48526696410907 3.9901884165241595 18.550080441008774 4 3 1
612 204 2 -0.35 75.74893901805456 4.605085288926926 17.897912523849904 4 3 1
611 204 2 -0.35 77.22159491016357 3.375291544121393 19.202248358167648 4 3 1
1499 500 2 -0.35 88.53225415457563 15.98169580470115 0.8335272781914248 1 -4 -3
1500 500 2 -0.35 87.69725777664793 18.09500683189426 1.301605851919111 1 -4 -3
1498 500 1 0.7 88.11475596561178 17.038351318297703 1.0675665650552688 1 -4 -3
738 246 2 -0.35 6.175982849399191 27.791230064466497 8.753154164494998 -4 -7 -3
736 246 1 0.7 6.086490515125944 26.69496701783523 8.3846457457373 -4 -7 -3
890 297 2 -0.35 1.1283834720057628 46.68376768387581 20.17182874203401 9 -9 7
1250 417 2 -0.35 10.88925601447452 46.54458606728445 11.465178564242299 2 -7 -7
889 297 1 0.7 1.2145672680149613 45.589806816958685 20.54788987397622 9 -9 7
891 297 2 -0.35 1.3007510640241597 44.49584595004156 20.923951005918436 9 -9 7
1249 417 1 0.7 9.848025550633823 47.05458632948483 11.428588214062916 2 -7 -7
1251 417 2 -0.35 8.806795086793125 47.564586591685206 11.391997863883534 2 -7 -7
766 256 1 0.7 12.411803652397216 35.24050326200891 9.639324197022937 -7 -3 -7
767 256 2 -0.35 12.690082381081847 34.76478027085925 8.618614353405537 -7 -3 -7
768 256 2 -0.35 12.133524923712587 35.71622625315856 10.660034040640337 -7 -3 -7
182 61 2 -0.35 22.340500757436054 37.62650275625759 19.414994337009507 -2 -6 -1
737 246 2 -0.35 5.996998180852698 25.59870397120396 8.016137326979603 -4 -7 -3
181 61 1 0.7 22.00629546361702 38.07929144753674 20.429336105168478 -2 -6 -1
183 61 2 -0.35 21.672090169797983 38.53208013881589 21.443677873327452 -2 -6 -1
582 194 2 -0.35 4.533692834432197 31.762571365068098 96.73936489535444 3 -5 5
748 250 1 0.7 30.38305545301295 28.999829872816257 23.806683385922483 -3 -1 3
749 250 2 -0.35 30.369377173443652 28.895738189592432 24.9619226798146 -3 -1 3
750 250 2 -0.35 30.39673373258225 29.103921556040085 22.65144409203037 -3 -1 3
351 117 2 -0.35 40.08061018026464 27.349832571736684 5.930715099038391 -4 -6 11
349 117 1 0.7 40.78744515284565 28.01186866979365 6.569223146287527 -4 -6 11
350 117 2 -0.35 41.49428012542665 28.673904767850615 7.207731193536662 -4 -6 11
137 46 2 -0.35 37.66809715437602 41.798807409547436 9.858934764879633 1 -5 -1
694 232 1 0.7 46.603059814428455 45.92232333704057 6.361426289689861 7 2 4
136 46 1 0.7 36.993868380382715 41.482824246712035 10.748412252580414 1 -5 -1
138 46 2 -0.35 36.319639606389416 41.166841083876626 11.637889740281194 1 -5 -1
696 232 2 -0.35 46.52499819844659 44.874576109019586 6.8530889080423005 7 2 4
695 232 2 -0.35 46.68112143041032 46.97007056506155 5.869763671337422 7 2 4
1148 383 2 -0.35 51.80678492070986 24.692853793413736 15.284939403639232 -3 -5 -11
474 158 2 -0.35 62.03426492088488 25.53492115519606 9.820989912572186 3 3 0
1010 337 2 -0.35 67.55105864262494 26.65755733090495 15.341621011404065 1 3 1
1009 337 1 0.7 68.52980294431055 27.04995714108339 15.825027652741428 1 3 1
1011 337 2 -0.35 69.50854724599616 27.44235695126183 16.30843429407879 1 3 1
651 217 2 -0.35 68.39597949420039 27.831122990475716 19.04093032613524 -1 -3 8
649 217 1 0.7 68.59295746193544 28.9742689155259 19.0367982237923 -1 -3 8
650 217 2 -0.35 68.78993542967048 30.11741484057609 19.032666121449363 -1 -3 8
473 158 2 -0.35 62.604544160782716 24.074051467457856 8.111299489134812 3 3 0
472 158 1 0.7 62.3194045408338 24.804486311326958 8.9661447008535 3 3 0
1178 393 2 -0.35 65.59363930463036 34.235597202901204 13.761039658940488 -9 -1 3
1177 393 1 0.7 65.11777045828175 34.64220862812337 14.737674693103244 -9 -1 3
1179 393 2 -0.35 64.64190161193316 35.048820053345544 15.714309727266 -9 -1 3
198 66 2 -0.35 56.80925756391722 40.758319067524624 14.781331839249367 -8 -2 5
235 79 1 0.7 59.677575193978385 42.12108838421156 21.697092739268225 1 -4 0
237 79 2 -0.35 59.77907793399385 43.03174265219365 22.40843372499574 1 -4 0
197 66 2 -0.35 57.29872738445378 38.91492225165433 13.460458085240715 -8 -2 5
196 66 1 0.7 57.0539924741855 39.83662065958948 14.12089496224504 -8 -2 5
236 79 2 -0.35 59.57607245396292 41.21043411622947 20.98575175354071 1 -4 0
772 258 1 0.7 55.450941787405846 47.81648834919798 0.2884278854544532 1 -5 -7
646 216 1 0.7 66.51412194482619 44.93657076771787 23.770920888536427 -6 -6 -5
648 216 2 -0.35 66.37743181112376 46.05677031410091 24.03937718596637 -6 -6 -5
579 193 2 -0.35 56.315291809900316 36.02993495066673 23.582880122222342 -2 -4 6
774 258 2 -0.35 56.340014630782576 48.49555898471907 0.5950425477628409 1 -5 -7
647 216 2 -0.35 66.65081207852862 43.816371221334826 23.502464591106488 -6 -6 -5
14 5 2 -0.35 88.90576021737496 32.78164052739538 21.27394413556387 -7 10 -7
274 92 1 0.7 91.72901467162183 45.53867383558476 7.780864810726322 9 -1 0
276 92 2 -0.35 92.51866321014843 45.39704820651708 8.618717641953973 9 -1 0
275 92 2 -0.35 90.93936613309522 45.68029946465244 6.943011979498671 9 -1 0
13 5 1 0.7 87.77885461593237 32.88833511606475 21.02036962937719 -7 10 -7
15 5 2 -0.35 86.65194901448979 32.99502970473412 20.766795123190512 -7 10 -7
958 320 1 0.7 76.51684453251066 39.12744423638467 22.044153948752548 5 3 3
960 320 2 -0.35 76.1594645122006 38.62401500276833 23.026212260577992 5 3 3
1400 467 2 -0.35 85.61545637716216 48.2686832672957 15.787234967987276 4 2 -3
959 320 2 -0.35 76.87422455282073 39.63087347000101 21.062095636927104 5 3 3
792 264 2 -0.35 5.655773370003618 52.93144199915513 2.988846560547228 -9 10 -6
790 264 1 0.7 5.798604425788956 51.78946997872616 2.84359094426298 -9 10 -6
1008 336 2 -0.35 11.625849992786437 56.07466004360581 3.457942092647016 9 -8 11
1006 336 1 0.7 11.829085220839495 54.932612369339246 3.46269096405227 9 -8 11
1007 336 2 -0.35 12.032320448892555 53.79056469507269 3.4674398354575233 9 -8 11
791 264 2 -0.35 5.941435481574292 50.647497958297194 2.6983353279787274 -9 10 -6
752 251 2 -0.35 17.679087496968712 70.74948469028486 5.610893046377457 3 2 6
751 251 1 0.7 18.12858214657951 70.02801674171604 4.821565130260521 3 2 6
753 251 2 -0.35 18.578076796190313 69.30654879314724 4.032237214143585 3 2 6
469 157 1 0.7 12.466066847780805 59.193312284187726 0.6703862219616954 0 -8 4
471 157 2 -0.35 12.816700590403478 58.32543757300716 1.3555500448728695 0 -8 4
744 248 2 -0.35 12.217528640774075 72.68886193772121 9.069072720380838 0 1 -2
548 183 2 -0.35 18.84241513618258 52.22591859199628 23.749337533979137 -7 3 -4
547 183 1 0.7 17.83212785616465 52.792649543987466 23.68821765271308 -7 3 -4
549 183 2 -0.35 16.82184057614672 53.35938049597865 23.627097771447026 -7 3 -4
671 224 2 -0.35 35.14463364500859 68.43018023980885 8.407433134610503 -1 -9 8
670 224 1 0.7 34.05755033204121 68.3012593601295 8.791137809389573 -1 -9 8
672 224 2 -0.35 32.97046701907382 68.17233848045018 9.174842484168643 -1 -9 8
1353 451 2 -0.35 43.77028275786109 53.923941712415775 21.293508004331198 1 -3 -3
1352 451 2 -0.35 44.76091490983016 52.07263601453137 20.306737943742924 1 -3 -3
1351 451 1 0.7 44.26559883384562 52.99828886347357 20.800122974037063 1 -3 -3
353 118 2 -0.35 32.17029233266186 53.34064220591208 14.554047500483845 -3 4 -2
352 118 1 0.7 32.55108228706504 53.70645011013507 13.521195338830688 -3 4 -2
1284 428 2 -0.35 36.8017807038469 73.18125059683929 10.305619118289748 2 -5 -1
1282 428 1 0.7 35.649111065486565 73.0733742877263 10.378525954287914 2 -5 -1
1283 428 2 -0.35 34.496441427126236 72.96549797861331 10.451432790286079 2 -5 -1
504 168 2 -0.35 33.7256183179216 73.40871489809847 6.678880981618729 0 -5 -6
354 118 2 -0.35 32.93187224146823 54.07225801435807 12.488343177177532 -3 4 -2
1442 481 2 -0.35 27.102412668564433 62.17252539067388 18.674543923015534 9 1 -4
1441 481 1 0.7 27.81150997591071 61.277865339228164 18.46871778020752 9 1 -4
1443 481 2 -0.35 28.520607283256982 60.38320528778245 18.262891637399505 9 1 -4
1074 358 2 -0.35 46.6918682609885 49.1370532308292 12.339127526137132 1 0 -2
1072 358 1 0.7 45.605790618473705 49.42203704130921 12.6303655425331 1 0 -2
1073 358 2 -0.35 44.51971297595891 49.70702085178922 12.92160355892907 1 0 -2
426 142 2 -0.35 38.18051597430189 65.29720606364502 2.186486168019748 -5 10 -1
425 142 2 -0.35 39.030926428475425 63.427876891627804 1.1072222957043434 -5 10 -1
424 142 1 0.7 38.60572120138866 64.36254147763641 1.6468542318620454 -5 10 -1
1116 372 2 -0.35 51.48262232864977 50.96599643269427 22.450125386350532 -3 -4 -5
1114 372 1 0.7 50.49291011929155 50.52572558103668 22.035117772171084 -3 -4 -5
1115 372 2 -0.35 49.503197909933334 50.085454729379094 21.62011015799164 -3 -4 -5
978 326 2 -0.35 69.90928221396693 69.04620966172068 20.07842967012188 -1 2 1
976 326 1 0.7 69.40318301705999 69.14509640743628 21.117508596099903 -1 2 1
977 326 2 -0.35 68.89708382015304 69.2439831531519 22.156587522077928 -1 2 1
1402 468 1 0.7 60.78139861146531 51.014621343332465 20.628083499378445 10 -3 0
1403 468 2 -0.35 60.24772059853409 50.466959989477495 21.500353423202764 10 -3 0
1404 468 2 -0.35 61.31507662439654 51.56228269718744 19.755813575554125 10 -3 0
897 299 2 -0.35 66.2235710042023 72.99147993605865 22.089079762706906 3 0 -1
895 299 1 0.7 65.1318619741179 73.05926496491246 22.475313608313197 3 0 -1
494 165 2 -0.35 59.722706431557 69.51143193966928 19.52983047518479 -9 -5 4
896 299 2 -0.35 64.04015294403351 73.12704999376626 22.861547453919485 3 0 -1
493 165 1 0.7 60.03111457225727 70.46205057170158 20.1187350813659 -9 -5 4
495 165 2 -0.35 60.339522712957546 71.41266920373388 20.70763968754701 -9 -5 4
683 228 2 -0.35 62.33534646430195 73.26321981652596 18.050805291341437 1 -6 0
682 228 1 0.7 62.14791964759394 72.17281323486247 17.702258773583626 1 -6 0
684 228 2 -0.35 61.96049283088592 71.08240665319897 17.35371225582582 1 -6 0
258 86 2 -0.35 55.000476977909756 66.10831653211294 17.392882373168696 -2 -4 -1
256 86 1 0.7 55.57233937312542 65.87808514881286 18.37551501616544 -2 -4 -1
257 86 2 -0.35 56.14420176834109 65.64785376551278 19.358147659162185 -2 -4 -1
116 39 2 -0.35 51.88803095649221 67.20575895319865 11.158997775286748 4 3 6
115 39 1 0.7 51.06577778159877 66.8220655587557 11.881686570993342 4 3 6
117 39 2 -0.35 50.24352460670533 66.43837216431275 12.604375366699939 4 3 6
1065 355 2 -0.35 65.86719185938706 63.432444025050486 16.898728022043652 1 -3 -1
1063 355 1 0.7 66.6841722807106 63.98005703925659 17.513758897566113 1 -3 -1
149 50 2 -0.35 68.54045518913064 53.05738257539583 8.382585689325351 5 -6 -7
148 50 1 0.7 67.89697795853823 52.09388207217813 8.4391881098345 5 -6 -7
601 201 1 0.7 68.75048091915174 56.14019742026455 8.25809192583523 -5 -2 3
603 201 2 -0.35 68.56758776854535 55.96584277800157 9.390236154360357 -5 -2 3
1064 355 2 -0.35 67.50115270203413 64.5276700534627 18.128789773088574 1 -3 -1
150 50 2 -0.35 67.25350072794582 51.13038156896043 8.495790530343648 5 -6 -7
602 201 2 -0.35 68.93337406975812 56.31455206252753 7.1259476973101 -5 -2 3
321 107 2 -0.35 64.61567002998495 50.685779108757906 16.23650915639567 3 -3 -1
319 107 1 0.7 64.58543083558797 51.549801817263024 17.009910960317683 3 -3 -1
320 107 2 -0.35 64.55519164119097 52.413824525768135 17.783312764239696 3 -3 -1
154 52 1 0.7 66.49109977632139 68.99291295448734 0.5756726808875348 7 1 -3
946 316 1 0.7 65.30594445715954 69.44464824299796 16.351845082872767 -3 -10 2
947 316 2 -0.35 64.92702162599025 70.46128844407343 16.762284103408003 -3 -10 2
155 52 2 -0.35 67.54453807552422 68.77034338375434 1.0073328897974643 7 1 -3
948 316 2 -0.35 65.68486728832883 68.42800804192248 15.941406062337533 -3 -10 2
1107 369 2 -0.35 55.11875378878405 71.25206427180139 22.37636371265343 -5 2 0
141 47 2 -0.35 51.011067835731644 63.958592006572296 0.43523438077537 -7 -6 -8
950 317 2 -0.35 69.14622455262476 72.32510060413372 20.889819914088278 2 4 -5
1106 369 2 -0.35 53.874755294335856 69.71808727578164 23.593648527919534 -5 2 0
1105 369 1 0.7 54.49675454155995 70.48507577379151 22.98500612028648 -5 2 0
113 38 2 -0.35 80.29804463575549 50.67318391966303 24.886859293481407 2 -8 10
112 38 1 0.7 81.23949082395585 50.024818051847774 24.689626496579265 2 -8 10
45 15 2 -0.35 74.60407305545102 51.68207073188872 18.05207913859881 2 -9 2
43 15 1 0.7 75.46169981093807 52.31166109495458 17.58981046887214 2 -9 2
1473 491 2 -0.35 95.81900865808109 53.191600568867344 6.361564205980181 11 -6 -6
1399 467 1 0.7 86.08003680516603 49.23178928289969 15.337577511000548 4 2 -3
44 15 2 -0.35 76.31932656642512 52.94125145802044 17.127541799145476 2 -9 2
1401 467 2 -0.35 86.5446172331699 50.19489529850368 14.887920054013819 4 2 -3
1471 491 1 0.7 94.8495682570312 53.30463006893655 5.734659395877928 11 -6 -6
1472 491 2 -0.35 93.88012785598131 53.41765956900576 5.107754585775677 11 -6 -6
932 311 2 -0.35 22.297783278353318 95.76258913987922 15.563518826825172 -3 -3 -1
1239 413 2 -0.35 17.61155279616953 75.32625868691834 19.904767077247993 2 1 0
1237 413 1 0.7 16.81550190459513 75.07397879047991 20.709911680332294 2 1 0
1238 413 2 -0.35 16.01945101302073 74.82169889404149 21.515056283416598 2 1 0
604 202 1 0.7 13.555420720978326 87.11545142759755 20.673407545088722 2 -6 4
343 115 1 0.7 0.9726202643130611 87.62791655158281 15.492709503018872 -5 -3 2
345 115 2 -0.35 1.246180909716756 87.69721834403352 16.6178591974374 -5 -3 2
606 202 2 -0.35 14.065006416652489 87.77889893509753 21.4769993715495 2 -6 4
596 199 2 -0.35 2.7361780492770738 90.58737532673813 9.662502973397967 -2 4 2
98 33 2 -0.35 11.899201919337461 91.66349564201647 6.189024403800175 4 -1 -3
595 199 1 0.7 3.6793999341680843 89.95183688850753 9.434416653346451 -2 4 2
99 33 2 -0.35 13.577744914477396 92.89601142075244 5.1663816173761505 4 -1 -3
97 33 1 0.7 12.738473416907429 92.27975353138446 5.6777030105881625 4 -1 -3
605 202 2 -0.35 13.045835025304163 86.45200392009757 19.869815718627947 2 -6 4
597 199 2 -0.35 4.622621819059095 89.31629845027693 9.206330333294936 -2 4 2
279 93 2 -0.35 18.478442050685697 87.9698431592279 7.856809933194657 1 8 -6
742 248 1 0.7 13.26207825650334 73.09732946306906 8.772980874812674 0 1 -2
278 93 2 -0.35 19.878902911456517 88.45609818857295 6.072246842719223 1 8 -6
277 93 1 0.7 19.178672481071107 88.21297067390043 6.96452838795694 1 8 -6
743 248 2 -0.35 14.306627872232607 73.5057969884169 8.476889029244509 0 1 -2
931 311 1 0.7 21.566866774537797 96.66160004254391 15.619558646067391 -3 -3 -1
344 115 2 -0.35 0.6990596189093663 87.5586147591321 14.367559808600342 -5 -3 2
243 81 2 -0.35 0.5861927647114606 76.84929641898243 18.331045193339992 -4 7 3
1371 457 2 -0.35 49.6660180355238 95.70563915512736 10.323447950893302 1 -3 2
502 168 1 0.7 32.71862012831713 73.86340832752639 6.325598472330467 0 -5 -6
503 168 2 -0.35 31.711621938712653 74.3181017569543 5.972315963042204 0 -5 -6
405 135 2 -0.35 31.028371784451465 94.47265021880897 21.621649462313986 1 -1 3
403 135 1 0.7 30.583757853572088 94.77940130438706 22.64820789901652 1 -1 3
995 332 2 -0.35 37.766364314359265 81.26880496823118 17.38065300024284 3 5 -2
994 332 1 0.7 37.4030964790094 80.53991411092642 16.55460542416891 3 5 -2
996 332 2 -0.35 37.03982864365954 79.81102325362166 15.728557848094974 3 5 -2
404 135 2 -0.35 30.13914392269271 95.08615238996515 23.674766335719056 1 -1 3
941 314 2 -0.35 49.644824712141805 90.41548220015667 6.793792387819203 -1 -4 6
940 314 1 0.7 50.19357568813494 89.82509714026925 5.959575481130582 -1 -4 6
942 314 2 -0.35 50.74232666412808 89.23471208038181 5.12535857444196 -1 -4 6
998 333 2 -0.35 53.64598439759673 87.87518212922798 22.10229033290515 4 -5 -4
997 333 1 0.7 53.36926583526953 88.83033029503659 21.50503090969282 4 -5 -4
999 333 2 -0.35 53.092547272942326 89.78547846084518 20.907771486480488 4 -5 -4
894 298 2 -0.35 51.751246219625614 90.21640901927991 0.5698583040685772 -11 -4 1
395 132 2 -0.35 71.91205313423711 87.0465233600644 11.135893333866793 -2 -5 1
394 132 1 0.7 71.99500798667862 87.14751584158117 9.983279343350302 -2 -5 1
396 132 2 -0.35 72.07796283912012 87.24850832309794 8.830665352833812 -2 -5 1
1278 426 2 -0.35 56.18617136985563 86.88544682773951 18.82495093231791 1 5 -1
1276 426 1 0.7 56.319641592611724 86.929132850319 17.673483507218208 1 5 -1
1277 426 2 -0.35 56.45311181536781 86.97281887289847 16.522016082118505 1 5 -1
892 298 1 0.7 51.85050309591521 91.03175450803421 1.388979666554208 -11 -4 1
893 298 2 -0.35 51.94975997220481 91.8470999967885 2.208101029039839 -11 -4 1
1201 401 1 0.7 61.219832154513796 93.6687031231123 7.695774787877463 -5 -2 -3
1203 401 2 -0.35 60.80878768079146 94.29239857421412 6.808280323164266 -5 -2 -3
252 84 2 -0.35 60.865192463068986 75.87953804391785 22.07672500864779 -1 -8 2
1202 401 2 -0.35 61.63087662823612 93.04500767201047 8.583269252590659 -5 -2 -3
250 84 1 0.7 59.89867697959397 75.26076862774944 21.907691787596598 -1 -8 2
251 84 2 -0.35 58.932161496118965 74.64199921158102 21.738658566545407 -1 -8 2
108 36 2 -0.35 65.73141571792874 91.53462638353066 0.42139258709710814 4 0 0
106 36 1 0.7 65.7749596934724 90.49524945009226 0.9346172089058056 4 0 0
107 36 2 -0.35 65.81850366901605 89.45587251665386 1.4478418307145031 4 0 0
949 317 1 0.7 69.45874837925294 73.21090443171664 21.570466986239698 2 4 -5
297 99 2 -0.35 63.23305132275329 77.94602108451794 21.28422865674227 6 4 -2
295 99 1 0.7 63.48725870287686 76.88068583524588 21.666379693044547 6 4 -2
296 99 2 -0.35 63.741466083000425 75.81535058597385 22.048530729346822 6 4 -2
951 317 2 -0.35 69.77127220588112 74.09670825929955 22.251114058391114 2 4 -5
30 10 2 -0.35 60.60602793070406 79.27138156002378 24.035127668161365 -3 1 -4
1269 423 2 -0.35 56.250923993413366 83.65254260739955 0.8182894419015757 -9 0 5
716 239 2 -0.35 90.17569830710734 94.7615971224104 13.215093745067717 -2 2 7
1182 394 2 -0.35 75.03971136829621 89.86427194163262 9.639360994477 -1 4 0
1180 394 1 0.7 74.38338594039517 90.01097416212814 8.694207360833008 -1 4 0
242 81 2 -0.35 95.30766212396522 76.96008060511791 17.90864137791455 -5 7 3
241 81 1 0.7 96.44692744433834 76.90468851205017 18.11984328562727 -5 7 3
717 239 2 -0.35 89.83369363052671 93.9647074015445 15.366930071087332 -2 2 7
431 144 2 -0.35 78.72983918541813 90.08625834813634 7.719570718464138 2 -5 -2
1416 472 2 -0.35 89.02874178160648 92.61029074376434 10.884155949407567 8 -5 4
715 239 1 0.7 90.00469596881702 94.36315226197745 14.291011908077525 -2 2 7
430 144 1 0.7 78.78262557912647 90.94121283911655 8.501789623243415 2 -5 -2
1415 472 2 -0.35 89.69117055383826 93.45605071347389 8.827878196925216 8 -5 4
1414 472 1 0.7 89.35995616772237 93.03317072861911 9.856017073166392 8 -5 4
1181 394 2 -0.35 73.72706051249415 90.15767638262365 7.749053727189018 -1 4 0
432 144 2 -0.35 78.83541197283483 91.79616733009676 9.284008528022692 2 -5 -2
1185 395 2 -0.35 79.88685849607548 84.60544306335169 19.347395098293894 -1 -4 7
1183 395 1 0.7 79.44062493404071 84.5829347371354 18.27689568990372 -1 -4 7
1184 395 2 -0.35 78.99439137200595 84.56042641091912 17.20639628151355 -1 -4 7
565 189 1 0.7 89.9155731222585 80.67592338462526 12.705574850601675 -1 0 1
567 189 2 -0.35 88.91675255016175 80.2574514078269 12.28983614733967 -1 0 1
963 321 2 -0.35 94.16484175895764 77.4879046212305 20.702679714127342 -1 1 0
961 321 1 0.7 94.10488612813327 76.38029037121 20.363274358415783 -1 1 0
962 321 2 -0.35 94.04493049730891 75.27267612118949 20.02386900270422 -1 1 0
566 189 2 -0.35 90.91439369435524 81.09439536142362 13.121313553863681 -1 0 1
524 175 2 -0.35 77.17130580127001 75.76153243584515 17.647933843633645 -2 3 6
523 175 1 0.7 78.22408569002303 75.59668524231718 18.10627859229337 -2 3 6
227 76 2 -0.35 89.647087779669 86.39357712090631 1.5752746104990871 -2 6 -5
525 175 2 -0.35 79.27686557877605 75.43183804878922 18.564623340953094 -2 3 6
228 76 2 -0.35 90.16390010174031 88.6552769160996 1.5796404060621299 -2 6 -5
226 76 1 0.7 89.90549394070466 87.52442701850296 1.5774575082806084 -2 6 -5
765 255 2 -0.35 78.61708818383488 86.36898742328076 12.98139071327554 6 -10 1
1070 357 2 -0.35 80.41214540665733 77.5684856760746 14.014645220175272 4 4 -1
763 255 1 0.7 78.52558944324431 86.64396472923089 14.104607282634124 6 -10 1
1071 357 2 -0.35 78.15498541283891 77.81622744629283 13.538984860694075 4 4 -1
1069 357 1 0.7 79.28356540974812 77.69235656118371 13.776815040434673 4 4 -1
764 255 2 -0.35 78.43409070265375 86.91894203518102 15.227823851992708 6 -10 1
366 122 2 -0.35 86.58936864424942 85.4967083410678 11.031764658518052 5 3 8
365 122 2 -0.35 84.71912881123045 86.54323453140051 10.143290742223371 5 3 8
364 122 1 0.7 85.65424872773994 86.01997143623416 10.587527700370712 5 3 8
186 62 2 -0.35 81.9460636156779 87.10572224632064 20.192754786273625 2 -1 8
184 62 1 0.7 82.42537453893348 88.00401787219228 19.636943660630504 2 -1 8
185 62 2 -0.35 82.90468546218908 88.90231349806392 19.081132534987383 2 -1 8
118 40 1 0.7 10.92564271797266 20.96802718019951 41.51689847388704 -1 6 0
119 40 2 -0.35 10.032780954641622 20.618890459168647 40.86382771079292 -1 6 0
120 40 2 -0.35 11.818504481303702 21.31716390123037 42.16996923698116 -1 6 0
1221 407 2 -0.35 13.17637845534653 14.752590576358322 26.41683362812751 -2 6 6
1219 407 1 0.7 13.077261188155529 15.12025765456507 27.512551058374445 -2 6 6
922 308 1 0.7 12.911508575281019 25.16991090978683 47.21224697144347 10 1 0
924 308 2 -0.35 12.481301490581354 24.7303253402443 46.22873978218487 10 1 0
1220 407 2 -0.35 12.978143920964527 15.487924732771814 28.60826848862138 -2 6 6
755 252 2 -0.35 14.39596388095683 8.80266060385424 24.58361234839958 -4 0 2
259 87 1 0.7 5.136393834887749 7.839290061413318 45.429756450115356 -5 5 -2
260 87 2 -0.35 5.853173662648259 7.49161704714627 46.272935051398804 -5 5 -2
261 87 2 -0.35 4.419614007127239 8.186963075680367 44.58657784883191 -5 5 -2
1162 388 1 0.7 17.786375798697247 17.598721694636918 48.40524311440712 2 -5 -5
1164 388 2 -0.35 17.979498069409818 16.940330490654944 47.469922414821454 2 -5 -5
292 98 1 0.7 9.746404947585834 10.500323100268904 44.293693891602004 4 5 -1
293 98 2 -0.35 10.629274243761087 10.873689364328575 43.640440924722505 4 5 -1
294 98 2 -0.35 8.86353565141058 10.126956836209233 44.9469468584815 4 5 -1
1196 399 2 -0.35 22.203178716512618 12.14939897971169 36.53956101441184 -3 2 -9
1195 399 1 0.7 23.084620137716758 11.415789554892692 36.71414117594782 -3 2 -9
208 70 1 0.7 15.042822545522093 0.8173514660949758 44.24446319376957 -5 3 1
209 70 2 -0.35 15.422665111871893 0.3380967735848385 45.23017844905124 -5 3 1
1241 414 2 -0.35 15.246185068556755 3.471089439389472 48.00132655611686 1 -4 -2
1197 399 2 -0.35 23.9660615589209 10.682180130073696 36.88872133748381 -3 2 -9
210 70 2 -0.35 14.662979979172293 1.2966061586051132 43.2587479384879 -5 3 1