LAMMPS (29 Aug 2024 - Update 1)
  using 1 OpenMP thread(s) per MPI task
package gpu 1 gpuID 0
# GCMC for CO2 molecular fluid, rigid/small/nvt dynamics
# Rigid CO2 TraPPE model
# [Potoff and J.I. Siepmann, Vapor-liquid equilibria of
# mixtures containing alkanes, carbon dioxide and
# nitrogen AIChE J., 47,1676-1682 (2001)].

# global model settings

units           real
atom_style      full
boundary        p p p
pair_style      lj/cut/coul/long  12
pair_modify     mix arithmetic shift yes
kspace_style    pppm 1.0e-4
bond_style      harmonic
angle_style     harmonic
neigh_modify    one 4000

# box, start molecules on simple cubic lattice
region          mbox block 0 ${lbox} 0 ${lbox} 0 ${lbox} units box
region          mbox block 0 97 0 ${lbox} 0 ${lbox} units box
region          mbox block 0 97 0 97 0 ${lbox} units box
region          mbox block 0 97 0 97 0 97 units box
create_box      2 mbox                                       bond/types 1                                angle/types 1                               extra/bond/per/atom 2                       extra/angle/per/atom 1                      extra/special/per/atom 2
Created orthogonal box = (0 0 0) to (97 97 97)
  1 by 1 by 1 MPI processor grid
molecule        co2mol ../CO2.txt
Read molecule template co2mol:
# CO2 molecule file. TraPPE model.
  1 molecules
  0 fragments
  3 atoms with max type 2
  2 bonds with max type 1
  1 angles with max type 1
  0 dihedrals with max type 0
  0 impropers with max type 0
create_atoms   	0 random ${nmols} 34578 mbox mol co2mol 464563 overlap 1.2
create_atoms   	0 random 500 34578 mbox mol co2mol 464563 overlap 1.2
Created 1500 atoms
  using lattice units in orthogonal box = (0 0 0) to (97 97 97)
  create_atoms CPU = 0.014 seconds

# rigid CO2 TraPPE model

pair_coeff      1   1  0.053649   2.800
pair_coeff      2   2  0.156973   3.050
bond_coeff      1       0       1.16
angle_coeff     1       0       180

# masses

mass 1 12.0107
mass 2 15.9994

write_data init_conf.data  pair ij
System init for write_data ...
PPPM initialization ...
  using 12-bit tables for long-range coulomb (src/kspace.cpp:342)
  G vector (1/distance) = 0.17795223
  grid = 24 24 24
  stencil order = 5
  estimated absolute RMS force accuracy = 0.028170818
  estimated relative force accuracy = 8.483558e-05
  using double precision FFTW3
  3d grid and FFT values/proc = 24389 13824
Generated 1 of 1 mixed pair_coeff terms from arithmetic mixing rule

# MD settings

group           co2 type 1 2
1500 atoms in group co2
velocity       	all create 300 54654
timestep        0.25

# rigid constraints with thermostat
fix             myrigidnvt co2 rigid/nvt molecule temp 300 300 $(100*dt)
fix             myrigidnvt co2 rigid/nvt molecule temp 300 300 25
  500 rigid bodies with 1500 atoms

thermo 1000
thermo_style custom step temp density press ke pe etotal


variable    mvol equal vol
variable    mden equal density
variable	mtmp equal temp
variable    mpre equal press

fix mydat all ave/time 1 4000 4000 v_mtmp v_mden v_mpre file statistics.dat ## every 1ps

run 8000000 ## 1ns

CITE-CITE-CITE-CITE-CITE-CITE-CITE-CITE-CITE-CITE-CITE-CITE-CITE

Your simulation uses code contributions which should be cited:

- GPU package (short-range, long-range and three-body potentials): doi:10.1016/j.cpc.2010.12.021, doi:10.1016/j.cpc.2011.10.012, doi:10.1016/j.cpc.2013.08.002, doi:10.1016/j.commatsci.2014.10.068, doi:10.1016/j.cpc.2016.10.020, doi:10.3233/APC200086

@Article{Brown11,
 author = {W. M. Brown and P. Wang and S. J. Plimpton and A. N. Tharrington},
 title = {Implementing Molecular Dynamics on Hybrid High Performance Computers---Short Range Forces},
 journal = {Comput.\ Phys.\ Commun.},
 year =    2011,
 volume =  182,
 pages =   {898--911},
 doi =     {10.1016/j.cpc.2010.12.021}
}

@Article{Brown12,
 author = {W. M. Brown and A. Kohlmeyer and S. J. Plimpton and A. N. Tharrington},
 title = {Implementing Molecular Dynamics on Hybrid High Performance Computers - Particle-Particle Particle-Mesh},
 journal = {Comput.\ Phys.\ Commun.},
 year =    2012,
 volume =  183,
 doi =     {10.1016/j.cpc.2011.10.012},
 pages =   {449--459}
}

@Article{Brown13,
 author = {W. M. Brown and Y. Masako},
 title = {Implementing Molecular Dynamics on Hybrid High Performance Computers---Three-Body Potentials},
 journal = {Comput.\ Phys.\ Commun.},
 year =    2013,
 volume =  184,
 pages =   {2785--2793},
 doi =     {10.1016/j.cpc.2013.08.002},
}

@Article{Trung15,
 author = {T. D. Nguyen and S. J. Plimpton},
 title = {Accelerating Dissipative Particle Dynamics Simulations for Soft Matter Systems},
 journal = {Comput.\ Mater.\ Sci.},
 year =    2015,
 doi =     {10.1016/j.commatsci.2014.10.068},
 volume =  100,
 pages =   {173--180}
}

@Article{Trung17,
 author = {T. D. Nguyen},
 title = {{GPU}-Accelerated {T}ersoff Potentials for Massively Parallel
    Molecular Dynamics Simulations},
 journal = {Comput.\ Phys.\ Commun.},
 year =    2017,
 doi =     {10.1016/j.cpc.2016.10.020},
 volume =  212,
 pages =   {113--122}
}

@inproceedings{Nikolskiy19,
 author = {V. Nikolskiy and V. Stegailov},
 title = {{GPU} Acceleration of Four-Site Water Models in {LAMMPS}},
 booktitle = {Proceedings of the International Conference on Parallel
    Computing (ParCo 2019), Prague, Czech Republic},
 doi =     {10.3233/APC200086},
 year =    2019
}

CITE-CITE-CITE-CITE-CITE-CITE-CITE-CITE-CITE-CITE-CITE-CITE-CITE

PPPM initialization ...
  using 12-bit tables for long-range coulomb (src/kspace.cpp:342)
  G vector (1/distance) = 0.17795223
  grid = 24 24 24
  stencil order = 5
  estimated absolute RMS force accuracy = 0.028170818
  estimated relative force accuracy = 8.483558e-05
  using double precision FFTW3
  3d grid and FFT values/proc = 24389 13824
Generated 1 of 1 mixed pair_coeff terms from arithmetic mixing rule
Per MPI rank memory allocation (min/avg/max) = 9.612 | 9.612 | 9.612 Mbytes
   Step          Temp         Density         Press          KinEng         PotEng         TotEng    
         0   305.66621      0.040035964   -1364.4574      758.3663       25429.47       26187.836    
      1000   310.59242      0.040035964    13.870861      770.58836     -51.428374      719.15999    
      2000   308.79517      0.040035964    24.44169       766.12933     -74.495226      691.6341     
      3000   301.5175       0.040035964    22.311884      748.07322     -85.131389      662.94183    
      4000   294.22714      0.040035964    21.207078      729.98565     -88.904113      641.08154    
      5000   294.61252      0.040035964    24.358369      730.94177     -102.07938      628.86239    
      6000   310.26849      0.040035964    20.1251        769.78469     -108.01437      661.77032    
      7000   299.82102      0.040035964    19.170295      743.86422     -112.01676      631.84746    
      8000   307.49513      0.040035964    31.002579      762.90388     -120.57961      642.32427    
      9000   299.47139      0.040035964    19.771247      742.99677     -130.16839      612.82838    
     10000   315.12291      0.040035964    18.450216      781.82863     -128.63651      653.19212    
     11000   308.49656      0.040035964    19.628303      765.38847     -128.26817      637.1203     
     12000   289.48019      0.040035964    24.454007      718.20833     -138.3627       579.84562    
     13000   298.41585      0.040035964    26.560411      740.37795     -135.607        604.77095    
     14000   302.69447      0.040035964    24.001725      750.99334     -142.88692      608.10641    
     15000   303.03481      0.040035964    19.620164      751.83771     -149.55773      602.27999    
     16000   297.1851       0.040035964    14.222702      737.32442     -151.81328      585.51114    
     17000   301.7837       0.040035964    19.976318      748.73368     -157.66678      591.0669     
     18000   297.8068       0.040035964    20.976317      738.86689     -156.94676      581.92013    
     19000   298.1629       0.040035964    21.521731      739.75038     -165.92819      573.82219    
     20000   304.12733      0.040035964    28.283503      754.5483      -165.8607       588.6876     
     21000   314.32963      0.040035964    25.68362       779.86048     -164.82985      615.03064    
     22000   297.39506      0.040035964    23.350844      737.84533     -166.50008      571.34525    
     23000   295.79955      0.040035964    14.09712       733.88683     -176.62604      557.2608     
     24000   304.89411      0.040035964    33.457494      756.4507      -177.0888       579.3619     
     25000   299.2872       0.040035964    5.6679278      742.5398      -181.02332      561.51648    
     26000   286.66619      0.040035964    21.030428      711.22672     -179.41104      531.81568    
     27000   294.78951      0.040035964    23.504739      731.3809      -164.20764      567.17325    
     28000   309.81332      0.040035964    17.879949      768.65539     -171.72079      596.9346     
     29000   301.14155      0.040035964    14.623096      747.14048     -176.87436      570.26612    
     30000   301.88402      0.040035964    18.528445      748.98257     -172.9567       576.02587    
     31000   298.08443      0.040035964    25.251801      739.5557      -168.62774      570.92796    
     32000   303.19487      0.040035964    14.056519      752.23482     -175.02515      577.20967    
     33000   295.01321      0.040035964    11.936325      731.93591     -181.17854      550.75736    
     34000   295.58981      0.040035964    24.614823      733.36647     -181.18497      552.1815     
     35000   294.42778      0.040035964    9.5404118      730.48345     -180.27826      550.20518    
     36000   304.4512       0.040035964    16.253255      755.35182     -182.58728      572.76454    
     37000   309.31337      0.040035964    17.279496      767.41499     -182.41996      584.99502    
     38000   306.84068      0.040035964    20.044042      761.28018     -188.45344      572.82674    
     39000   297.78218      0.040035964    18.62775       738.80581     -194.98934      543.81646    
     40000   305.33912      0.040035964    27.567124      757.55477     -190.35321      567.20156    
     41000   314.07995      0.040035964    23.411785      779.24102     -185.0785       594.16252    
     42000   291.65397      0.040035964    8.6098265      723.60155     -178.68102      544.92053    
     43000   296.88922      0.040035964    16.818005      736.59035     -177.24683      559.34352    
     44000   305.43899      0.040035964    12.026949      757.80254     -179.81487      577.98767    
     45000   307.37776      0.040035964    16.315878      762.6127      -183.35739      579.25531    
     46000   300.81412      0.040035964    24.139181      746.32812     -184.00759      562.32053    
     47000   297.30702      0.040035964    17.663855      737.6269      -179.67301      557.9539     
     48000   310.72937      0.040035964    22.955205      770.92813     -178.32567      592.60246    
     49000   303.50428      0.040035964    19.023903      753.00248     -175.21291      577.78957    
     50000   303.85243      0.040035964    21.919427      753.86626     -177.74674      576.11952    
     51000   322.31822      0.040035964    23.175138      799.68039     -179.79066      619.88973    
     52000   291.5258       0.040035964    23.893551      723.28355     -170.92248      552.36107    
     53000   293.18804      0.040035964    19.463925      727.4076      -172.00335      555.40425    
     54000   305.65624      0.040035964    26.318505      758.34156     -161.79226      596.5493     
     55000   287.1504       0.040035964    22.59054       712.42805     -169.51643      542.91162    
     56000   284.82195      0.040035964    18.756643      706.65112     -177.47433      529.17679    
     57000   309.4062       0.040035964    16.966498      767.64532     -173.73991      593.9054     
     58000   305.03011      0.040035964    21.118958      756.78811     -166.93698      589.85113    
     59000   293.48777      0.040035964    54.622141      728.15124     -161.29962      566.85161    
     60000   296.73479      0.040035964    8.0799319      736.20719     -166.41677      569.79042    
     61000   310.87227      0.040035964    19.946926      771.28268     -168.97185      602.31083    
     62000   300.65011      0.040035964    15.793118      745.9212      -166.81936      579.10185    
     63000   303.49945      0.040035964    9.3566174      752.99051     -172.62297      580.36754    
     64000   299.48589      0.040035964    18.594449      743.03274     -170.19365      572.83909    
     65000   297.37226      0.040035964    39.699322      737.78877     -172.72385      565.06492    
     66000   299.55094      0.040035964    12.966511      743.19414     -182.8599       560.33425    
     67000   298.28583      0.040035964    27.605208      740.05538     -181.08081      558.97456    
     68000   298.07683      0.040035964    20.289795      739.53683     -178.00779      561.52904    
     69000   312.59052      0.040035964    15.05844       775.54569     -185.65343      589.89227    
     70000   302.87129      0.040035964    16.349301      751.43202     -181.07826      570.35377    
     71000   294.81739      0.040035964    34.922149      731.45007     -182.63292      548.81715    
     72000   296.63119      0.040035964    11.925025      735.95015     -177.90657      558.04357    
     73000   316.0835       0.040035964   -2.8680984      784.21187     -168.93941      615.27247    
     74000   306.17258      0.040035964    59.833414      759.62261     -167.89425      591.72837    
     75000   295.75397      0.040035964    74.222513      733.77376     -170.32381      563.44994    
     76000   297.41447      0.040035964    4.8082283      737.89349     -166.33097      571.56252    
     77000   314.82979      0.040035964    9.8293715      781.10138     -168.22378      612.87761    
     78000   301.79863      0.040035964    21.149594      748.77073     -165.55876      583.21196    
     79000   302.42276      0.040035964    45.558727      750.31921     -153.98138      596.33783    
     80000   290.37849      0.040035964    20.765571      720.43705     -155.67939      564.75766    
     81000   307.40597      0.040035964   -31.244647      762.68268     -162.24891      600.43377    
     82000   309.28713      0.040035964    33.400909      767.3499      -148.09912      619.25078    
     83000   299.01856      0.040035964    36.065231      741.87328     -149.38319      592.49009    
     84000   288.57264      0.040035964    29.847304      715.95666     -143.07078      572.88589    
     85000   304.42057      0.040035964   -9.8296644      755.27583     -156.96651      598.30932    
     86000   316.13753      0.040035964    15.736889      784.34594     -147.0889       637.25703    
     87000   308.66739      0.040035964    24.529779      765.8123      -151.10663      614.70567    
     88000   290.95668      0.040035964    22.437008      721.87154     -146.88434      574.98719    
     89000   306.51562      0.040035964    16.149407      760.4737      -148.31859      612.15511    
     90000   307.81287      0.040035964    16.600016      763.69221     -140.8826       622.80961    
     91000   294.57175      0.040035964    22.369742      730.84062     -149.253        581.58762    
     92000   286.4537       0.040035964    21.053428      710.69953     -147.43929      563.26024    
     93000   307.81976      0.040035964    12.830999      763.70932     -136.90936      626.79996    
     94000   313.17211      0.040035964    31.985383      776.98864     -139.94186      637.04678    
     95000   284.15028      0.040035964    29.400004      704.98467     -134.67955      570.30512    
     96000   297.89025      0.040035964    17.250304      739.07393     -138.16059      600.91334    
     97000   310.43433      0.040035964    14.012615      770.19613     -138.97322      631.22291    
     98000   310.32854      0.040035964    18.156532      769.93366     -140.25869      629.67498    
     99000   302.73592      0.040035964    19.740951      751.09616     -139.86399      611.23218    
    100000   297.22942      0.040035964    18.538822      737.43439     -134.60487      602.82952    
    101000   303.33664      0.040035964    20.009819      752.58657     -142.97499      609.61159    
    102000   283.44559      0.040035964    10.538253      703.23633     -136.20338      567.03294    
    103000   293.24035      0.040035964    26.104903      727.53738     -140.04987      587.48752    
    104000   322.01758      0.040035964    20.661284      798.93448     -149.45053      649.48395    
    105000   298.24231      0.040035964    22.535442      739.94738     -134.71825      605.22913    
    106000   284.70879      0.040035964    15.242579      706.37034     -138.08302      568.28733    
    107000   303.70222      0.040035964    24.982299      753.49358     -127.25872      626.23486    
    108000   292.2361       0.040035964    18.829493      725.04583     -134.36751      590.67831    
    109000   293.39441      0.040035964    18.672365      727.91961     -133.75363      594.16598    
    110000   309.57563      0.040035964    18.526627      768.06568     -126.18971      641.87598    
    111000   299.47517      0.040035964    18.390743      743.00615     -129.21409      613.79206    
    112000   287.20624      0.040035964    19.986339      712.5666      -129.96289      582.6037     
    113000   297.1724       0.040035964    21.124548      737.29291     -127.98108      609.31183    
    114000   319.7526       0.040035964    14.322276      793.31501     -125.58977      667.72524    
    115000   294.93198      0.040035964    17.730428      731.73438     -114.92748      616.8069     
    116000   292.99808      0.040035964    30.011902      726.93631     -120.49607      606.44024    
    117000   302.84335      0.040035964    18.660514      751.3627      -118.51911      632.84359    
    118000   291.55922      0.040035964    14.25064       723.36646     -121.9364       601.43006    
    119000   291.17567      0.040035964    29.515456      722.41487     -121.93792      600.47695    
    120000   300.32727      0.040035964    31.828393      745.12023     -120.04068      625.07955    
    121000   297.52552      0.040035964    21.912943      738.16902     -106.15736      632.01166    
    122000   314.50988      0.040035964   -22.037705      780.30767     -108.06727      672.2404     
    123000   298.81389      0.040035964    15.729409      741.3655      -105.39981      635.96569    
    124000   302.2259       0.040035964    36.135187      749.83078     -104.86723      644.96355    
    125000   283.71684      0.040035964   -13.764139      703.9093      -114.92984      588.97946    
    126000   290.49481      0.040035964    26.321028      720.72562     -111.86159      608.86403    
    127000   304.81039      0.040035964    20.018013      756.24298     -103.59988      652.64309    
    128000   307.11917      0.040035964    42.861467      761.97113     -112.74056      649.23057    
    129000   295.09181      0.040035964    13.042735      732.13092     -116.09183      616.03909    
    130000   302.59211      0.040035964    26.139629      750.73936     -122.81379      627.92557    
    131000   310.3845       0.040035964    20.696155      770.0725      -121.72003      648.35247    
    132000   294.02273      0.040035964    8.0677263      729.47851     -118.71975      610.75876    
    133000   294.49052      0.040035964    20.387004      730.6391      -112.81941      617.81969    
    134000   306.76951      0.040035964    28.316734      761.10361     -116.96624      644.13737    
    135000   307.24238      0.040035964    20.983269      762.27681     -122.39982      639.87699    
    136000   296.51197      0.040035964    5.52493        735.65438     -114.88911      620.76527    
    137000   296.8949       0.040035964    22.264073      736.60443     -111.93086      624.67358    
    138000   324.37975      0.040035964    21.786026      804.79511     -107.77005      697.02506    
    139000   301.18683      0.040035964    21.850138      747.25282     -106.26458      640.98824    
    140000   281.89455      0.040035964    18.34439       699.38816     -108.38669      591.00147    
    141000   300.61766      0.040035964    19.536681      745.8407      -106.2979       639.5428     
    142000   302.70781      0.040035964    20.162678      751.02642     -108.5979       642.42851    
    143000   299.92216      0.040035964    21.693123      744.11514     -106.83849      637.27664    
    144000   296.0805       0.040035964    20.681985      734.58388     -102.04394      632.53993    
    145000   284.85345      0.040035964    4.670801       706.72927     -105.65734      601.07193    
    146000   308.48019      0.040035964    15.564357      765.34786     -98.291551      667.05631    
    147000   298.23207      0.040035964    18.491975      739.92198     -105.04712      634.87486    
    148000   300.42089      0.040035964    20.619868      745.35252     -101.12616      644.22636    
    149000   302.47751      0.040035964    16.966545      750.45505     -109.94521      640.50984    
    150000   293.45817      0.040035964    17.025663      728.07782     -100.77522      627.3026     
    151000   301.00998      0.040035964    31.187524      746.81407     -107.00847      639.8056     
    152000   298.05696      0.040035964    18.605638      739.48755     -101.4098       638.07775    
    153000   303.23728      0.040035964    17.811944      752.34005     -107.99294      644.34711    
    154000   303.90068      0.040035964    18.718142      753.98595     -103.81714      650.16882    
    155000   298.70384      0.040035964    19.469782      741.09247     -105.7227       635.36977    
    156000   307.87829      0.040035964    19.455281      763.85451     -103.64307      660.21144    
    157000   287.10437      0.040035964    30.307491      712.31385     -92.975079      619.33877    
    158000   292.37839      0.040035964    12.609372      725.39886     -101.53443      623.86443    
    159000   301.28664      0.040035964    19.898459      747.50046     -104.57601      642.92446    
    160000   306.88923      0.040035964    7.7308467      761.40064     -101.78026      659.62038    
    161000   299.06716      0.040035964    24.325809      741.99388     -96.301276      645.6926     
    162000   297.84707      0.040035964    21.591349      738.9668      -95.013929      643.95287    
    163000   309.31569      0.040035964    14.626248      767.42076     -91.480502      675.94026    
    164000   307.95374      0.040035964    21.353146      764.04171     -91.210714      672.83099    
    165000   290.50402      0.040035964    19.945845      720.74847     -90.066104      630.68237    
    166000   297.41499      0.040035964    19.548914      737.89478     -88.027463      649.86731    
    167000   322.5247       0.040035964    20.433344      800.19267     -82.491608      717.70107    
    168000   293.44555      0.040035964    16.174875      728.0465      -84.150158      643.89635    
    169000   288.10194      0.040035964    22.417206      714.78887     -88.845818      625.94305    
    170000   310.19641      0.040035964    26.917705      769.60584     -80.422729      689.18311    
    171000   306.32074      0.040035964    17.762929      759.9902      -85.820525      674.16968    
    172000   282.01077      0.040035964    18.813714      699.6765      -87.519737      612.15677    
    173000   304.65072      0.040035964    25.111415      755.84683     -86.41289       669.43394    
    174000   305.18178      0.040035964    7.6831457      757.1644      -86.36112       670.80328    
    175000   297.65978      0.040035964   -6.505577       738.50213     -92.732697      645.76943    
    176000   289.53396      0.040035964    20.171341      718.34173     -83.17674       635.16499    
    177000   287.67082      0.040035964    49.303965      713.71923     -79.982757      633.73648    
    178000   323.64303      0.040035964    22.096369      802.96728     -83.54699       719.42029    
    179000   309.88526      0.040035964    14.755868      768.83388     -83.240585      685.59329    
    180000   283.43305      0.040035964    15.948756      703.20521     -76.533884      626.67133    
    181000   282.99325      0.040035964    25.63874       702.11406     -85.4341        616.67996    
    182000   309.77954      0.040035964    29.083356      768.57159     -83.773735      684.79785    
    183000   308.59825      0.040035964    7.6969885      765.64075     -84.527844      681.11291    
    184000   295.39036      0.040035964    21.022706      732.87162     -76.664193      656.20743    
    185000   306.25154      0.040035964    31.513806      759.81851     -84.335581      675.48293    
    186000   310.55735      0.040035964    20.829581      770.50133     -86.901121      683.60021    
    187000   298.35935      0.040035964    19.696422      740.23778     -80.108454      660.12932    
    188000   292.96619      0.040035964    20.592871      726.8572      -81.792097      645.0651     
    189000   297.51282      0.040035964    22.660678      738.1375      -82.056872      656.08063    
    190000   317.54958      0.040035964    19.597988      787.84926     -89.082442      698.76682    
    191000   295.35169      0.040035964    13.169551      732.77569     -86.576482      646.19921    
    192000   292.66614      0.040035964    22.555338      726.11275     -83.211708      642.90104    
    193000   321.92563      0.040035964    22.127038      798.70637     -86.966631      711.73974    
    194000   301.63939      0.040035964    15.982698      748.37564     -82.380914      665.99472    
    195000   283.23684      0.040035964    18.306455      702.7184      -86.925388      615.79301    
    196000   296.65381      0.040035964    19.355092      736.00628     -88.943914      647.06236    
    197000   311.46606      0.040035964    26.069835      772.75588     -87.799922      684.95596    
    198000   307.58101      0.040035964    18.027856      763.11696     -86.746143      676.37082    
    199000   284.45671      0.040035964    20.789921      705.74493     -83.791916      621.95302    
    200000   290.49689      0.040035964    12.485365      720.73078     -85.037677      635.69311    
    201000   319.20964      0.040035964    26.024139      791.96793     -76.425838      715.54209    
    202000   303.32279      0.040035964    17.694347      752.55221     -81.951417      670.6008     
    203000   298.35191      0.040035964    6.2841091      740.21932     -75.477478      664.74184    
    204000   313.25445      0.040035964    27.010967      777.19292     -81.265157      695.92777    
    205000   300.15403      0.040035964    22.196308      744.69042     -79.417567      665.27285    
    206000   299.54198      0.040035964    22.902669      743.17191     -80.166416      663.00549    
    207000   298.18769      0.040035964   -4.6171019      739.81187     -84.935327      654.87654    
    208000   304.99485      0.040035964    34.576599      756.70064     -76.592505      680.10813    
    209000   300.86941      0.040035964    16.211849      746.4653      -79.008423      667.45688    
    210000   313.05809      0.040035964    14.537286      776.70575     -76.114505      700.59124    
    211000   297.06471      0.040035964    28.741867      737.02574     -81.77004       655.2557     
    212000   294.78583      0.040035964    24.760666      731.37176     -79.541465      651.83029    
    213000   300.75933      0.040035964    9.1460967      746.19219     -84.842418      661.34977    
    214000   306.37751      0.040035964    19.574065      760.13104     -76.36098       683.77006    
    215000   313.46283      0.040035964    39.796404      777.70992     -68.928742      708.78117    
    216000   287.22096      0.040035964    19.282236      712.60311     -66.728283      645.87483    
    217000   288.46632      0.040035964    9.8266357      715.69288     -73.906827      641.78606    
    218000   304.23964      0.040035964    6.2440597      754.82693     -67.727117      687.09981    
    219000   300.81673      0.040035964    18.169749      746.33459     -80.308439      666.02615    
    220000   299.80017      0.040035964    25.240122      743.81249     -79.747001      664.06549    
    221000   291.49932      0.040035964    39.902831      723.21785     -78.197321      645.02053    
    222000   293.44356      0.040035964    5.7094995      728.04156     -72.489735      655.55182    
    223000   301.56014      0.040035964    7.0590865      748.17901     -72.75193       675.42708    
    224000   304.48182      0.040035964    22.042828      755.42779     -73.086773      682.34102    
    225000   301.84477      0.040035964    37.416392      748.88518     -82.247531      666.63765    
    226000   301.13976      0.040035964    4.4153036      747.13604     -76.405997      670.73004    
    227000   293.03598      0.040035964   -3.6827044      727.03036     -74.196954      652.8334     
    228000   305.73402      0.040035964    16.685971      758.53453     -76.646826      681.8877     
    229000   317.07791      0.040035964    41.916621      786.67904     -67.45194       719.2271     
    230000   294.34807      0.040035964    40.857556      730.28566     -68.507371      661.77829    
    231000   292.60584      0.040035964    14.53903       725.96315     -77.444692      648.51846    
    232000   304.28456      0.040035964    20.716971      754.93838     -70.477071      684.46131    
    233000   305.53941      0.040035964    14.350242      758.05169     -73.884517      684.16717    
    234000   296.93816      0.040035964    19.603367      736.71177     -72.798901      663.91286    
    235000   304.18092      0.040035964    24.786445      754.68124     -72.015629      682.66561    
    236000   290.34448      0.040035964    20.038663      720.35266     -73.373659      646.979      
    237000   292.97809      0.040035964    16.849687      726.88671     -70.361167      656.52554    
    238000   310.43151      0.040035964    20.268196      770.18914     -73.75714       696.432      
    239000   302.12443      0.040035964    21.710137      749.57903     -78.3465        671.23253    
    240000   281.46465      0.040035964    20.072189      698.32157     -76.894373      621.42719    
    241000   290.71916      0.040035964    17.641181      721.28225     -73.651786      647.63046    
    242000   293.68057      0.040035964    18.734408      728.6296      -69.086128      659.54347    
    243000   319.48059      0.040035964    21.08594       792.64015     -71.256069      721.38408    
    244000   295.56828      0.040035964    19.66793       733.31304     -66.039331      667.27371    
    245000   291.07503      0.040035964    19.030344      722.16517     -67.236264      654.92891    
    246000   293.81472      0.040035964    33.616337      728.96241     -55.075967      673.88644    
    247000   302.39267      0.040035964    15.762833      750.24455     -60.75631       689.48824    
    248000   291.14163      0.040035964    12.94775       722.33041     -56.781284      665.54913    
    249000   299.45438      0.040035964    4.918831       742.95456     -63.388153      679.56641    
    250000   289.89065      0.040035964    22.074272      719.2267      -64.327344      654.89936    
    251000   308.10215      0.040035964    36.623916      764.40993     -65.95596       698.45397    
    252000   302.26042      0.040035964    12.718083      749.91644     -66.090063      683.82638    
    253000   289.86938      0.040035964    4.1640438      719.17392     -68.977106      650.19682    
    254000   298.4827       0.040035964    30.967444      740.5438      -69.645035      670.89877    
    255000   320.06014      0.040035964    49.346556      794.07803     -61.787693      732.29034    
    256000   310.69247      0.040035964    12.106603      770.83658     -67.708387      703.12819    
    257000   276.98572      0.040035964    32.286092      687.2092      -63.600753      623.60845    
    258000   303.37204      0.040035964    23.24825       752.67438     -68.5673        684.10708    
    259000   308.37293      0.040035964    7.806657       765.08174     -74.43378       690.64796    
    260000   294.40285      0.040035964    15.849014      730.42159     -70.899364      659.52223    
    261000   304.18488      0.040035964    27.194073      754.69107     -77.942519      676.74855    
    262000   296.43232      0.040035964    12.967573      735.45675     -78.281899      657.17485    
    263000   291.94568      0.040035964    28.89073       724.32527     -74.951425      649.37384    
    264000   296.67147      0.040035964    19.05682       736.05009     -71.148845      664.90124    
    265000   302.50924      0.040035964    14.997262      750.53375     -71.535717      678.99803    
    266000   292.14449      0.040035964    19.087033      724.81854     -70.073407      654.74514    
    267000   304.28546      0.040035964    16.489379      754.94061     -67.764919      687.17569    
    268000   304.34749      0.040035964    20.210748      755.09452     -63.401834      691.69269    
    269000   301.46164      0.040035964    32.389778      747.93465     -62.211379      685.72327    
    270000   308.62833      0.040035964    15.436278      765.7154      -62.676391      703.03901    
    271000   301.87697      0.040035964    21.532271      748.96509     -69.98648       678.97861    
    272000   292.11759      0.040035964    32.392382      724.75179     -67.300186      657.45161    
    273000   304.42512      0.040035964    6.8566615      755.28712     -77.950963      677.33615    
    274000   300.86575      0.040035964    7.4122099      746.45622     -72.511567      673.94465    
    275000   301.91334      0.040035964    21.32988       749.05532     -64.498588      684.55673    
    276000   291.29453      0.040035964    22.057887      722.70977     -69.95354       652.75623    
    277000   300.52357      0.040035964    17.348072      745.60726     -69.777288      675.82997    
    278000   311.34848      0.040035964    20.138184      772.46415     -70.048991      702.41516    
    279000   291.74906      0.040035964    18.619166      723.83746     -74.799981      649.03748    
    280000   298.20705      0.040035964    20.316847      739.8599      -65.660882      674.19902    
    281000   317.19699      0.040035964    32.075288      786.97447     -62.814782      724.15968    
    282000   306.53467      0.040035964    19.098158      760.52097     -64.730396      695.79058    
    283000   295.72688      0.040035964    17.95832       733.70655     -61.535055      672.17149    
    284000   292.93308      0.040035964    23.363199      726.77503     -55.459106      671.31593    
    285000   317.47836      0.040035964    33.292266      787.67257     -62.144434      725.52814    
    286000   305.15025      0.040035964    16.123256      757.08618     -64.611573      692.47461    
    287000   284.58637      0.040035964    16.804795      706.06664     -66.721049      639.34559    
    288000   300.59554      0.040035964    20.050772      745.78583     -70.55912       675.22671    
    289000   306.69869      0.040035964    6.441179       760.9279      -67.219638      693.70826    
    290000   293.04536      0.040035964    14.402202      727.05361     -72.883642      654.16997    
    291000   289.13688      0.040035964    20.9688        717.35658     -61.652272      655.7043     
    292000   290.77272      0.040035964    21.852427      721.41514     -68.054747      653.36039    
    293000   310.46522      0.040035964    21.536479      770.27276     -73.587138      696.68562    
    294000   313.41025      0.040035964    18.18896       777.57947     -69.265437      708.31403    
    295000   292.82514      0.040035964    12.469529      726.50724     -72.019746      654.48749    
    296000   293.1396       0.040035964    19.542459      727.28744     -66.244806      661.04263    
    297000   288.87469      0.040035964    21.366567      716.70606     -62.346337      654.35973    
    298000   297.56163      0.040035964    24.608775      738.2586      -67.40535       670.85325    
    299000   304.14932      0.040035964    19.786289      754.60284     -64.553963      690.04887    
    300000   308.60519      0.040035964    16.861897      765.65797     -75.752833      689.90514    
    301000   291.64488      0.040035964    19.885182      723.57898     -68.300004      655.27897    
    302000   311.76291      0.040035964    24.637366      773.49237     -63.741908      709.75046    
    303000   306.57591      0.040035964    17.530269      760.62328     -73.798018      686.82526    
    304000   289.07265      0.040035964    16.89444       717.19721     -74.336796      642.86041    
    305000   295.22314      0.040035964    26.923137      732.45676     -73.114103      659.34265    
    306000   311.39418      0.040035964    19.839322      772.57755     -67.293256      705.28429    
    307000   304.98879      0.040035964    15.168997      756.68559     -67.895536      688.79005    
    308000   291.0382       0.040035964    15.769084      722.0738      -67.276568      654.79724    
    309000   292.8962       0.040035964    18.276866      726.68355     -70.147033      656.53652    
    310000   304.06984      0.040035964    19.400433      754.40566     -71.890867      682.51479    
    311000   294.53386      0.040035964    22.901124      730.74663     -67.248989      663.49765    
    312000   294.30917      0.040035964    26.053448      730.18917     -59.54423       670.64494    
    313000   301.0087       0.040035964    17.411286      746.81089     -65.517545      681.29334    
    314000   302.82652      0.040035964    18.473388      751.32094     -64.525236      686.79571    
    315000   299.12449      0.040035964    20.091934      742.13611     -66.855212      675.2809     
    316000   301.4537       0.040035964    27.181038      747.91493     -62.445121      685.46981    
    317000   305.91342      0.040035964    16.591112      758.97963     -67.176923      691.8027     
    318000   302.21472      0.040035964    13.249002      749.80305     -65.596465      684.20658    
    319000   291.9685       0.040035964    21.630174      724.38189     -67.34617       657.03572    
    320000   293.94557      0.040035964    23.444888      729.28707     -72.142751      657.14432    
    321000   309.7489       0.040035964    17.489282      768.49555     -74.904572      693.59098    
    322000   299.36939      0.040035964    20.750477      742.74371     -73.245335      669.49838    
    323000   301.73287      0.040035964    28.844749      748.60756     -71.427352      677.1802     
    324000   297.95439      0.040035964    18.243735      739.23306     -66.319726      672.91334    
    325000   296.55916      0.040035964    20.506524      735.77145     -63.462978      672.30847    
    326000   289.7262       0.040035964    18.786392      718.81869     -64.504362      654.31432    
    327000   305.46884      0.040035964    22.156807      757.87661     -65.507153      692.36946    
    328000   298.53884      0.040035964    20.315618      740.68308     -59.932192      680.75089    
    329000   295.84554      0.040035964    19.345946      734.00094     -65.44296       668.55798    
    330000   301.7459       0.040035964    22.048465      748.63989     -58.695225      689.94466    
    331000   303.66553      0.040035964    23.885353      753.40256     -55.228688      698.17387    
    332000   308.40658      0.040035964    14.592854      765.16523     -62.524694      702.64054    
    333000   296.20948      0.040035964    13.088677      734.90388     -59.30474       675.59914    
    334000   299.33679      0.040035964    19.512181      742.66283     -66.396857      676.26598    
    335000   298.52303      0.040035964    24.936096      740.64386     -56.421156      684.2227     
    336000   304.56892      0.040035964    21.273036      755.64388     -53.249012      702.39487    
    337000   296.6108       0.040035964    22.003248      735.89956     -55.475042      680.42452    
    338000   295.32445      0.040035964    12.191169      732.70811     -54.147083      678.56103    
    339000   288.97745      0.040035964    19.717897      716.96102     -57.201884      659.75913    
    340000   306.87046      0.040035964    21.838362      761.35408     -64.87659       696.47749    
    341000   300.61815      0.040035964    21.447476      745.84191     -67.052093      678.78982    
    342000   297.92858      0.040035964    25.53684       739.16902     -62.488322      676.6807     
    343000   275.19788      0.040035964    15.817904      682.77353     -60.742556      622.03097    
    344000   306.61517      0.040035964    16.799511      760.72068     -64.477941      696.24274    
    345000   302.28577      0.040035964    28.611416      749.97932     -61.741817      688.23751    
    346000   303.7541       0.040035964    17.111081      753.6223      -61.654795      691.9675     
    347000   300.79543      0.040035964    23.588895      746.28175     -67.365532      678.91622    
    348000   280.7533       0.040035964    18.684209      696.55668     -64.791004      631.76567    
    349000   304.93446      0.040035964    18.402739      756.5508      -63.796551      692.75425    
    350000   320.37806      0.040035964    27.756329      794.86681     -66.179694      728.68712    
    351000   286.99799      0.040035964    29.338225      712.04992     -67.645375      644.40455    
    352000   296.24012      0.040035964    15.795574      734.9799      -71.770512      663.20939    
    353000   298.88618      0.040035964    21.063677      741.54485     -67.543917      674.00093    
    354000   310.504        0.040035964    25.035345      770.36899     -72.551347      697.81764    
    355000   306.62928      0.040035964    23.35772       760.75569     -69.623917      691.13177    
    356000   282.41671      0.040035964    18.357324      700.68364     -68.949722      631.73391    
    357000   296.26929      0.040035964    19.616255      735.05228     -72.068698      662.98358    
    358000   307.81064      0.040035964    18.845084      763.68669     -69.091896      694.5948     
    359000   300.3792       0.040035964    19.003484      745.24908     -63.531433      681.71765    
    360000   298.09593      0.040035964    20.245245      739.58421     -66.51335       673.07086    
    361000   305.18729      0.040035964    17.986752      757.17809     -66.997335      690.18075    
    362000   299.23019      0.040035964    17.303131      742.39835     -66.926351      675.47199    
    363000   300.00373      0.040035964    25.157908      744.31753     -61.812752      682.50478    
    364000   291.24087      0.040035964    18.082107      722.57663     -66.184522      656.39211    
    365000   311.17483      0.040035964    20.025699      772.03333     -67.974425      704.05891    
    366000   297.53938      0.040035964    25.830393      738.20341     -61.415077      676.78834    
    367000   295.39614      0.040035964    11.528413      732.88596     -59.214374      673.67159    
    368000   313.24188      0.040035964    40.589812      777.16174     -56.941135      720.22061    
    369000   292.09783      0.040035964    34.046047      724.70276     -58.955488      665.74728    
    370000   300.06191      0.040035964    7.6837692      744.46188     -59.207796      685.25409    
    371000   297.99115      0.040035964    21.101658      739.32425     -59.252652      680.0716     
    372000   301.19732      0.040035964    35.451894      747.27886     -60.329824      686.94904    
    373000   299.45955      0.040035964    18.476756      742.96741     -57.379879      685.58753    
    374000   316.80036      0.040035964    17.044433      785.99043     -56.254763      729.73566    
    375000   302.76646      0.040035964    17.670144      751.17194     -58.923172      692.24877    
    376000   296.81025      0.040035964    25.295734      736.39442     -64.923034      671.47138    
    377000   297.04468      0.040035964    20.006133      736.97604     -61.394422      675.58162    
    378000   303.54095      0.040035964    11.984315      753.09347     -61.594427      691.49904    
    379000   301.34403      0.040035964    18.349546      747.64284     -71.098224      676.54461    
    380000   284.23167      0.040035964    21.309413      705.18661     -72.680711      632.5059     
    381000   297.45243      0.040035964    20.114302      737.98769     -74.857766      663.12992    
    382000   307.22085      0.040035964    20.300626      762.22339     -74.194542      688.02885    
    383000   301.65603      0.040035964    20.763736      748.41692     -71.930851      676.48607    
    384000   291.52276      0.040035964    18.429932      723.27601     -69.857361      653.41865    
    385000   301.17387      0.040035964    27.417127      747.22068     -66.585053      680.63562    
    386000   307.13872      0.040035964    19.292339      762.01964     -70.374429      691.64521    
    387000   281.08483      0.040035964    20.728775      697.3792      -66.67277       630.70643    
    388000   299.22109      0.040035964    14.584141      742.37577     -72.969833      669.40594    
    389000   295.79758      0.040035964    26.174297      733.88195     -80.249147      653.6328     
    390000   313.77627      0.040035964    38.642083      778.48757     -68.958323      709.52925    
    391000   308.09892      0.040035964    19.406667      764.4019      -69.569951      694.83195    
    392000   292.42934      0.040035964    19.417125      725.52526     -66.616196      658.90906    
    393000   299.99023      0.040035964    17.235505      744.28402     -65.440413      678.84361    
    394000   302.3228       0.040035964    22.847872      750.07121     -61.63507       688.43614    
    395000   300.85359      0.040035964    20.512361      746.42604     -60.083552      686.34249    
    396000   300.0854       0.040035964    19.873946      744.52015     -56.435204      688.08495    
    397000   310.26072      0.040035964    24.958046      769.7654      -54.562947      715.20245    
    398000   293.45419      0.040035964    22.80647       728.06794     -48.526308      679.54163    
    399000   300.91598      0.040035964    19.21417       746.58085     -64.959851      681.621      
    400000   299.22922      0.040035964    20.037474      742.39594     -63.153194      679.24274    
    401000   301.73267      0.040035964    18.290412      748.60707     -63.551955      685.05512    
    402000   301.0673       0.040035964    22.097858      746.95627     -59.883855      687.07242    
    403000   300.24964      0.040035964    18.474783      744.92764     -66.214267      678.71337    
    404000   304.86408      0.040035964    20.36744       756.37619     -69.439994      686.9362     
    405000   294.96215      0.040035964    20.197302      731.80924     -71.613884      660.19535    
    406000   299.53974      0.040035964    24.137916      743.16635     -69.405186      673.76117    
    407000   297.42548      0.040035964    17.494513      737.9208      -72.015183      665.90562    
    408000   304.67234      0.040035964    18.331632      755.90048     -68.322692      687.57779    
    409000   302.05461      0.040035964    20.729031      749.40581     -61.568285      687.83753    
    410000   290.47933      0.040035964    22.203783      720.68723     -62.080221      658.60701    
    411000   301.77011      0.040035964    21.336712      748.69997     -65.990801      682.70917    
    412000   300.94774      0.040035964    23.564336      746.65965     -64.986754      681.67289    
    413000   290.82728      0.040035964    21.314446      721.5505      -69.677283      651.87321    
    414000   314.93063      0.040035964    20.883102      781.35158     -68.813692      712.53789    
    415000   296.97468      0.040035964    20.012419      736.80236     -64.227322      672.57503    
    416000   304.32871      0.040035964    17.69615       755.04792     -67.893319      687.1546     
    417000   301.75957      0.040035964    13.992956      748.67382     -65.960399      682.71342    
    418000   305.42852      0.040035964    22.809662      757.77659     -60.041029      697.73556    
    419000   294.30948      0.040035964    28.421349      730.18993     -65.893711      664.29622    
    420000   293.51556      0.040035964    10.978309      728.22021     -62.54305       665.67716    
    421000   311.75324      0.040035964    18.449399      773.46838     -59.747396      713.72099    
    422000   311.58838      0.040035964    28.335867      773.05935     -64.273936      708.78542    
    423000   294.98243      0.040035964    27.639966      731.85954     -60.011151      671.84839    
    424000   304.87936      0.040035964    19.300085      756.4141      -69.493812      686.92029    
    425000   304.83523      0.040035964    20.147674      756.30461     -68.848875      687.45573    
    426000   290.63206      0.040035964    22.767987      721.06615     -69.565657      651.50049    
    427000   288.27566      0.040035964    18.710171      715.21986     -68.493004      646.72685    
    428000   299.68796      0.040035964    20.05336       743.53409     -70.259103      673.27499    
    429000   308.07319      0.040035964    18.774254      764.33809     -71.733419      692.60467    
    430000   288.43378      0.040035964    19.420152      715.61215     -67.263053      648.3491     
    431000   299.01341      0.040035964    23.017581      741.86052     -67.952401      673.90812    
    432000   302.65479      0.040035964    18.466153      750.89488     -68.508372      682.3865     
    433000   288.89836      0.040035964    20.821358      716.7648      -64.439966      652.32483    
    434000   292.56095      0.040035964    17.791271      725.85179     -68.460595      657.39119    
    435000   305.11565      0.040035964    22.283439      757.00034     -64.063917      692.93643    
    436000   296.17472      0.040035964    18.837771      734.81764     -60.576158      674.24148    
    437000   301.09773      0.040035964    22.269157      747.03177     -57.636925      689.39484    
    438000   303.87383      0.040035964    17.901866      753.91934     -63.823228      690.09611    
    439000   299.18687      0.040035964    18.965048      742.29088     -62.48057       679.81031    
    440000   300.92856      0.040035964    20.555489      746.61204     -56.964167      689.64788    
    441000   292.86197      0.040035964    17.534859      726.59862     -69.786505      656.81212    
    442000   293.02866      0.040035964    20.32889       727.01217     -73.747251      653.26492    
    443000   303.78365      0.040035964    24.481936      753.6956      -66.20398       687.49162    
    444000   302.28427      0.040035964    18.786121      749.97561     -70.073737      679.90188    
    445000   292.17343      0.040035964    12.707946      724.89032     -67.032859      657.85746    
    446000   297.89929      0.040035964    22.227354      739.09636     -69.345839      669.75052    
    447000   301.28758      0.040035964    19.295401      747.50278     -65.765623      681.73716    
    448000   299.70291      0.040035964    22.932508      743.57119     -64.604521      678.96667    
    449000   302.41573      0.040035964    21.551231      750.30176     -62.699082      687.60268    
    450000   295.98815      0.040035964    23.004253      734.35476     -65.801395      668.55337    
    451000   306.70593      0.040035964    18.264531      760.94588     -72.600129      688.34575    
    452000   282.93754      0.040035964    20.400263      701.97584     -67.582595      634.39324    
    453000   296.01759      0.040035964    18.316235      734.4278      -66.595437      667.83237    
    454000   321.58587      0.040035964    24.508012      797.8634      -63.213012      734.65039    
    455000   299.62858      0.040035964    20.070691      743.38678     -65.383661      678.00312    
    456000   302.89152      0.040035964    6.5278446      751.48221     -68.721904      682.7603     
    457000   296.36936      0.040035964    20.074967      735.30056     -67.317299      667.98326    
    458000   305.05829      0.040035964    22.615701      756.85802     -64.0552        692.80282    
    459000   291.17126      0.040035964    29.032107      722.40392     -59.21421       663.18971    
    460000   309.89186      0.040035964    3.8556307      768.85026     -59.647292      709.20297    
    461000   298.9507       0.040035964    19.177822      741.70493     -64.994622      676.71031    
    462000   297.14738      0.040035964    24.371834      737.23084     -72.099218      665.13162    
    463000   300.91303      0.040035964    20.613178      746.57352     -73.869761      672.70376    
    464000   299.35771      0.040035964    19.226744      742.71473     -67.15684       675.55789    
    465000   289.32597      0.040035964    18.034806      717.82571     -72.325302      645.50041    
    466000   311.94729      0.040035964    25.563978      773.94983     -64.830885      709.11894    
    467000   289.91402      0.040035964    14.139313      719.28469     -66.284213      653.00047    
    468000   291.95185      0.040035964    30.641815      724.34058     -67.704449      656.63613    
    469000   301.48484      0.040035964    19.249615      747.9922      -64.129761      683.86244    
    470000   310.49993      0.040035964    6.3929267      770.35889     -68.944214      701.41468    
    471000   290.48561      0.040035964    21.233498      720.70282     -66.160174      654.54264    
    472000   318.64685      0.040035964    21.762326      790.57161     -62.429012      728.1426     
    473000   308.41535      0.040035964    11.626997      765.18699     -66.774639      698.41235    
    474000   289.10388      0.040035964    12.431446      717.2747      -63.073673      654.20103    
    475000   293.35399      0.040035964    21.339994      727.81934     -68.108643      659.71069    
    476000   305.27573      0.040035964    22.868939      757.3975      -72.411103      684.9864     
    477000   309.18601      0.040035964    18.178233      767.09902     -66.440278      700.65874    
    478000   288.22306      0.040035964    20.785207      715.08935     -67.856683      647.23266    
    479000   304.44122      0.040035964    21.843008      755.32707     -68.709269      686.6178     
    480000   305.18578      0.040035964    20.244291      757.17432     -62.893985      694.28033    
    481000   297.12052      0.040035964    3.950097       737.1642      -67.01231       670.15189    
    482000   295.11058      0.040035964    23.994995      732.17748     -65.497917      666.67956    
    483000   313.92042      0.040035964    24.764171      778.84523     -60.769706      718.07552    
    484000   305.98278      0.040035964    9.8104427      759.15171     -65.940563      693.21114    
    485000   293.90893      0.040035964    20.882868      729.19616     -66.601692      662.59447    
    486000   296.71684      0.040035964    21.138894      736.16266     -71.179622      664.98303    
    487000   316.22242      0.040035964    22.303071      784.55655     -73.448384      711.10817    
    488000   293.3047       0.040035964    24.815119      727.69704     -61.812831      665.88421    
    489000   301.5232       0.040035964   -0.92289887     748.08736     -65.856302      682.23106    
    490000   298.37608      0.040035964    17.319885      740.27928     -67.637885      672.6414     
    491000   302.32399      0.040035964    41.593848      750.07416     -64.530069      685.54409    
    492000   296.94849      0.040035964    13.78789       736.73738     -64.682873      672.05451    
    493000   290.45443      0.040035964    4.1341526      720.62545     -68.04827       652.57718    
    494000   293.81845      0.040035964    16.9804        728.97168     -53.958901      675.01278    
    495000   296.25304      0.040035964    35.768387      735.01195     -56.536907      678.47505    
    496000   306.64542      0.040035964    16.308996      760.79574     -52.807805      707.98794    
    497000   306.21964      0.040035964    10.694049      759.73937     -61.776838      697.96253    
    498000   282.95034      0.040035964    30.513027      702.00759     -56.499225      645.50837    
    499000   297.90098      0.040035964    24.195959      739.10053     -59.337772      679.76276    
    500000   312.67416      0.040035964    17.598441      775.75322     -53.685507      722.06771    
    501000   298.84623      0.040035964    16.660516      741.44573     -53.160502      688.28523    
    502000   286.6878       0.040035964    23.320723      711.28034     -56.569121      654.71122    
    503000   301.79703      0.040035964    36.749012      748.76676     -50.070767      698.69599    
    504000   312.8884       0.040035964    22.612472      776.28474     -51.182906      725.10183    
    505000   292.63549      0.040035964    19.781829      726.03673     -57.168853      668.86788    
    506000   298.35914      0.040035964    18.81919       740.23725     -61.84628       678.39097    
    507000   310.36246      0.040035964    19.940287      770.01782     -52.134758      717.88307    
    508000   299.70373      0.040035964    27.412932      743.57323     -54.573589      688.99964    
    509000   294.55462      0.040035964    18.824253      730.79813     -57.511467      673.28667    
    510000   296.47728      0.040035964    16.479093      735.56829     -57.933242      677.63505    
    511000   302.67387      0.040035964    20.105694      750.94222     -63.401729      687.54049    
    512000   291.56745      0.040035964    20.213016      723.38688     -58.182058      665.20482    
    513000   307.54268      0.040035964    18.54179       763.02187     -65.593473      697.4284     
    514000   313.49128      0.040035964    22.217858      777.7805      -66.836269      710.94423    
    515000   308.38052      0.040035964    22.849808      765.10056     -68.161167      696.9394     
    516000   291.5313       0.040035964    19.772528      723.2972      -68.726178      654.57102    
    517000   309.15303      0.040035964    27.890648      767.01719     -69.125815      697.89137    
    518000   311.55779      0.040035964    21.711893      772.98347     -69.249124      703.73434    
    519000   287.59218      0.040035964    9.4166415      713.52414     -61.746369      651.77777    
    520000   293.04764      0.040035964    22.749628      727.05926     -62.174843      664.88442    
    521000   305.38168      0.040035964    21.532537      757.66035     -57.940576      699.71978    
    522000   300.22344      0.040035964    19.835841      744.86262     -59.778621      685.084      
    523000   303.40847      0.040035964    19.687748      752.76479     -59.209555      693.55523    
    524000   304.41044      0.040035964    26.213787      755.25068     -51.598877      703.6518     
    525000   294.60756      0.040035964    16.886971      730.92948     -52.130818      678.79866    
    526000   296.8356       0.040035964    32.495632      736.45731     -57.106468      679.35084    
    527000   305.74677      0.040035964    31.351208      758.56616     -60.3743        698.19186    
    528000   301.81115      0.040035964    15.878184      748.80178     -61.999792      686.80199    
    529000   295.69436      0.040035964    21.374128      733.62586     -59.364235      674.26162    
    530000   298.38589      0.040035964    30.015726      740.30362     -67.113771      673.18985    
    531000   305.11423      0.040035964    25.419857      756.99681     -61.413598      695.58321    
    532000   294.85306      0.040035964    2.2386764      731.53856     -55.714135      675.82443    
    533000   302.95128      0.040035964    19.316521      751.63049     -53.347632      698.28285    
    534000   297.02843      0.040035964    20.701128      736.93572     -56.749782      680.18594    
    535000   311.04587      0.040035964    28.825909      771.71337     -61.062866      710.6505     
    536000   304.65861      0.040035964    19.659289      755.86642     -52.591792      703.27463    
    537000   286.38725      0.040035964    21.867533      710.53467     -50.4526        660.08207    
    538000   294.51527      0.040035964    20.312061      730.70051     -54.529499      676.17101    
    539000   294.92719      0.040035964    27.412268      731.72248     -57.141248      674.58123    
    540000   302.6066       0.040035964    22.601042      750.77532     -51.540817      699.23451    
    541000   309.83038      0.040035964    20.66102       768.69771     -52.79553       715.90218    
    542000   306.45055      0.040035964    20.420102      760.31225     -50.667949      709.6443     
    543000   287.64863      0.040035964    19.204986      713.66418     -49.130414      664.53377    
    544000   304.56186      0.040035964    19.484772      755.62636     -50.255951      705.37041    
    545000   303.6264       0.040035964    16.389557      753.30548     -54.433505      698.87197    
    546000   291.51263      0.040035964    22.009319      723.25086     -56.780403      666.47046    
    547000   331.05585      0.040035964    30.251608      821.35868     -62.547185      758.8115     
    548000   307.43301      0.040035964    12.007786      762.74977     -57.665597      705.08417    
    549000   293.24975      0.040035964    18.791552      727.56072     -64.293844      663.26687    
    550000   299.7703       0.040035964    26.977847      743.73837     -67.311356      676.42701    
    551000   286.44435      0.040035964    35.112685      710.67633     -66.372478      644.30385    
    552000   300.59643      0.040035964    34.202332      745.78804     -66.881242      678.9068     
    553000   309.08436      0.040035964    26.718041      766.84681     -67.573945      699.27286    
    554000   305.59627      0.040035964    14.667169      758.19277     -71.38381       686.80896    
    555000   279.92889      0.040035964    15.290056      694.5113      -68.50255       626.00875    
    556000   299.90756      0.040035964    22.662825      744.07893     -63.084651      680.99427    
    557000   311.60284      0.040035964    22.987707      773.09524     -54.590376      718.50486    
    558000   297.61831      0.040035964    18.685439      738.39923     -55.575743      682.82348    
    559000   302.17027      0.040035964    19.712289      749.69278     -55.296418      694.39636    
    560000   298.07712      0.040035964    19.513399      739.53756     -51.457269      688.08029    
    561000   303.90676      0.040035964    22.911506      754.00105     -51.059013      702.94204    
    562000   302.68375      0.040035964    27.74134       750.96674     -54.045271      696.92147    
    563000   309.30476      0.040035964    16.086765      767.39363     -54.241019      713.15261    
    564000   302.47224      0.040035964    24.518273      750.44196     -53.989971      696.45199    
    565000   286.91573      0.040035964    26.516511      711.84582     -65.623924      646.2219     
    566000   291.43283      0.040035964    25.090805      723.05287     -62.442854      660.61002    
    567000   307.55064      0.040035964    17.390189      763.04161     -57.935226      705.10638    
    568000   304.8744       0.040035964    23.785633      756.40179     -54.301415      702.10037    
    569000   292.17856      0.040035964    20.042324      724.90305     -57.149082      667.75397    
    570000   299.27574      0.040035964    20.949408      742.51136     -58.395546      684.11581    
    571000   314.97054      0.040035964    21.105293      781.45059     -61.041997      720.40859    
    572000   303.61227      0.040035964    17.403632      753.27041     -69.251321      684.01909    
    573000   287.24502      0.040035964    3.8024434      712.6628      -65.131488      647.53131    
    574000   280.35046      0.040035964    19.989439      695.55721     -69.25877       626.29844    
    575000   298.93887      0.040035964    23.958424      741.67559     -68.991124      672.68446    
    576000   307.38686      0.040035964    19.036094      762.63528     -58.223076      704.4122     
    577000   300.2597       0.040035964    18.211241      744.95258     -59.996914      684.95567    
    578000   280.8014       0.040035964    20.050634      696.67602     -63.606751      633.06927    
    579000   304.93647      0.040035964    28.081046      756.55579     -68.43648       688.11931    
    580000   313.87526      0.040035964    15.896421      778.73317     -67.900124      710.83305    
    581000   303.52699      0.040035964    21.045868      753.05883     -60.435734      692.6231     
    582000   294.9382       0.040035964    20.587204      731.7498      -55.535791      676.214      
    583000   303.66537      0.040035964    21.386493      753.40216     -55.276534      698.12563    
    584000   299.4217       0.040035964    18.908559      742.87349     -62.284069      680.58942    
    585000   289.04828      0.040035964    19.857796      717.13675     -64.466177      652.67057    
    586000   291.66542      0.040035964    27.237868      723.62994     -63.793973      659.83597    
    587000   307.16536      0.040035964    25.208107      762.08572     -67.762339      694.32338    
    588000   300.95026      0.040035964    14.448558      746.6659      -71.759362      674.90654    
    589000   300.61197      0.040035964    25.440269      745.8266      -63.416172      682.41042    
    590000   298.97632      0.040035964    20.009263      741.76849     -66.568482      675.20001    
    591000   297.56412      0.040035964    21.649917      738.26478     -60.055429      678.20935    
    592000   301.42441      0.040035964    19.767954      747.84226     -66.456849      681.38541    
    593000   305.96749      0.040035964    23.67468       759.11379     -64.12572       694.98807    
    594000   303.2974       0.040035964    22.203955      752.48921     -65.694761      686.79445    
    595000   296.26492      0.040035964    20.498319      735.04143     -61.084232      673.95719    
    596000   295.0869       0.040035964    19.320708      732.11873     -55.255963      676.86277    
    597000   308.18985      0.040035964    20.887813      764.62752     -52.370098      712.25742    
    598000   309.45144      0.040035964    25.039596      767.75756     -58.988104      708.76946    
    599000   297.90575      0.040035964    27.132022      739.11237     -60.030754      679.08162    
    600000   295.34927      0.040035964    18.925015      732.76969     -58.470834      674.29886    
    601000   305.51465      0.040035964    22.850806      757.99028     -59.396538      698.59374    
    602000   307.97014      0.040035964    20.525949      764.08241     -63.129904      700.9525     
    603000   297.85165      0.040035964    19.963652      738.97814     -64.040312      674.93783    
    604000   290.35547      0.040035964    24.105401      720.37993     -70.163591      650.21634    
    605000   288.34944      0.040035964    22.460858      715.4029      -63.762922      651.63998    
    606000   307.61011      0.040035964    25.087887      763.18917     -72.504242      690.68493    
    607000   299.35259      0.040035964    18.992651      742.70204     -64.8127        677.88934    
    608000   294.64255      0.040035964    33.311479      731.01628     -66.449269      664.56701    
    609000   293.57792      0.040035964    16.087782      728.37492     -66.429391      661.94553    
    610000   311.2641       0.040035964    18.57924       772.2548      -70.114923      702.13988    
    611000   300.97387      0.040035964    21.947827      746.72446     -64.049698      682.67476    
    612000   292.98986      0.040035964    17.32931       726.91592     -69.93546       656.98046    
    613000   308.62387      0.040035964    18.067521      765.70433     -65.910181      699.79415    
    614000   307.2174       0.040035964    23.541612      762.21485     -64.539331      697.67552    
    615000   298.20495      0.040035964    17.793841      739.85469     -65.997402      673.85729    
    616000   300.91581      0.040035964    17.901619      746.58043     -65.174504      681.40592    
    617000   284.13894      0.040035964    24.677002      704.95655     -61.062537      643.89402    
    618000   303.30322      0.040035964    17.341119      752.50364     -65.459551      687.04409    
    619000   313.88411      0.040035964    21.018547      778.75514     -66.641537      712.1136     
    620000   296.33912      0.040035964    18.765452      735.22554     -70.854186      664.37135    
    621000   304.2214       0.040035964    19.803006      754.78169     -69.168152      685.61354    
    622000   297.04907      0.040035964    17.06391       736.98693     -68.053265      668.93367    
    623000   299.92855      0.040035964    21.574873      744.131       -70.802987      673.32801    
    624000   295.55112      0.040035964    21.980137      733.27047     -69.753244      663.51722    
    625000   309.9841       0.040035964    20.317983      769.0791      -76.80606       692.27304    
    626000   310.22385      0.040035964    23.562393      769.67392     -71.065676      698.60824    
    627000   303.26079      0.040035964    24.825618      752.39838     -77.212335      675.18604    
    628000   300.05254      0.040035964    20.239699      744.43863     -72.404043      672.03459    
    629000   320.92         0.040035964    23.784844      796.21137     -71.91236       724.29901    
    630000   292.46836      0.040035964    19.883572      725.62206     -70.635105      654.98696    
    631000   299.84228      0.040035964    17.811507      743.91695     -69.470169      674.44678    
    632000   303.44702      0.040035964    20.947148      752.86041     -70.119758      682.74065    
    633000   312.57661      0.040035964    20.144837      775.51119     -70.650893      704.8603     
    634000   300.55499      0.040035964    19.898329      745.68521     -69.495983      676.18923    
    635000   281.80641      0.040035964    31.433626      699.16948     -70.846028      628.32345    
    636000   302.4738       0.040035964    22.097067      750.44582     -71.984907      678.46092    
    637000   285.30432      0.040035964    14.566662      707.84787     -74.082025      633.76584    
    638000   293.72872      0.040035964    20.891212      728.74906     -75.788786      652.96027    
    639000   300.8744       0.040035964    24.731337      746.47768     -70.051932      676.42575    
    640000   296.45823      0.040035964    27.200434      735.52104     -76.114693      659.40635    
    641000   304.86916      0.040035964    8.678468       756.38879     -72.702126      683.68667    
    642000   305.6639       0.040035964    22.129612      758.36055     -63.514223      694.84633    
    643000   298.95655      0.040035964    23.187328      741.71944     -65.467343      676.2521     
    644000   297.16767      0.040035964    36.047869      737.28119     -67.077863      670.20332    
    645000   299.46103      0.040035964    8.5774893      742.97108     -70.711482      672.25959    
    646000   306.24194      0.040035964    3.9680467      759.79471     -76.689443      683.10526    
    647000   307.59049      0.040035964    36.6982        763.14049     -68.453223      694.68726    
    648000   298.19589      0.040035964    25.550194      739.83223     -67.964632      671.8676     
    649000   309.33149      0.040035964   -1.9517979      767.45995     -79.012978      688.44697    
    650000   299.24869      0.040035964    27.603807      742.44425     -67.857188      674.58706    
    651000   291.5808       0.040035964    38.953418      723.42        -65.104344      658.31566    
    652000   302.99615      0.040035964    0.9705392      751.74181     -61.290169      690.45164    
    653000   312.71772      0.040035964    19.478072      775.86129     -64.885645      710.97565    
    654000   297.65222      0.040035964    31.226534      738.48336     -67.272188      671.21118    
    655000   289.0178       0.040035964    7.7246881      717.06113     -67.771278      649.28985    
    656000   300.63456      0.040035964    12.384766      745.88263     -76.259381      669.62324    
    657000   319.54223      0.040035964    27.63397       792.79309     -74.618627      718.17446    
    658000   295.6331       0.040035964    28.582259      733.47388     -66.323765      667.15011    
    659000   294.09603      0.040035964    30.541738      729.66037     -71.70027       657.9601     
    660000   295.32224      0.040035964    7.7136935      732.70263     -80.563576      652.13905    
    661000   318.79359      0.040035964    32.860163      790.93568     -77.876039      713.05965    
    662000   303.97378      0.040035964    18.19749       754.16732     -72.01702       682.1503     
    663000   307.01702      0.040035964    16.527056      761.7177      -70.624755      691.09294    
    664000   308.90668      0.040035964    10.75072       766.40599     -66.562406      699.84358    
    665000   304.62471      0.040035964    27.016552      755.7823      -68.210296      687.572      
    666000   300.23718      0.040035964    23.836958      744.89672     -67.528192      677.36853    
    667000   296.89931      0.040035964    12.905434      736.61537     -67.645238      668.97014    
    668000   298.45152      0.040035964    25.147662      740.46645     -69.099445      671.367      
    669000   296.39182      0.040035964    22.181112      735.35628     -66.99398       668.3623     
    670000   300.94621      0.040035964    6.9244476      746.65583     -75.625225      671.03061    
    671000   293.03099      0.040035964    17.634651      727.01796     -68.440463      658.57749    
    672000   301.90067      0.040035964    25.216686      749.02388     -72.793388      676.23049    
    673000   317.96452      0.040035964    21.98098       788.87874     -71.27657       717.60217    
    674000   296.93508      0.040035964    18.374405      736.70413     -73.38462       663.31951    
    675000   281.72661      0.040035964    18.86369       698.97149     -67.53655       631.43494    
    676000   302.43947      0.040035964    22.053172      750.36067     -68.483528      681.87714    
    677000   306.88713      0.040035964    26.48402       761.39542     -66.800682      694.59474    
    678000   304.74979      0.040035964    19.087595      756.09263     -66.060741      690.03189    
    679000   294.59443      0.040035964    22.108287      730.89691     -64.641859      666.25505    
    680000   294.25437      0.040035964    18.295328      730.0532      -63.819243      666.23396    
    681000   314.58765      0.040035964    20.616355      780.50064     -68.940629      711.56001    
    682000   301.65114      0.040035964    22.723797      748.40479     -66.820482      681.58431    
    683000   291.65495      0.040035964    22.566154      723.60396     -70.368303      653.23566    
    684000   310.53781      0.040035964    22.31204       770.45287     -70.19601       700.25686    
    685000   305.30888      0.040035964    20.627424      757.47976     -72.99708       684.48268    
    686000   300.07194      0.040035964    22.31732       744.48676     -71.212936      673.27383    
    687000   288.3062       0.040035964    17.51148       715.29564     -76.336944      638.95869    
    688000   304.60904      0.040035964    22.841872      755.74343     -72.62472       683.11871    
    689000   297.21259      0.040035964    18.190328      737.39262     -70.965279      666.42734    
    690000   292.27934      0.040035964    18.062616      725.1531      -67.041665      658.11144    
    691000   301.80134      0.040035964    18.137277      748.77743     -59.808632      688.9688     
    692000   305.13689      0.040035964    18.009946      757.05304     -59.632421      697.42062    
    693000   289.47552      0.040035964    18.373712      718.19675     -65.890025      652.30672    
    694000   298.85597      0.040035964    20.992817      741.46989     -65.488529      675.98137    
    695000   307.68141      0.040035964    19.242597      763.36606     -63.056573      700.30949    
    696000   297.45946      0.040035964    18.641541      738.00511     -67.140748      670.86436    
    697000   287.63753      0.040035964    20.796162      713.63665     -66.997125      646.63953    
    698000   289.85643      0.040035964    18.222461      719.1418      -74.966878      644.17492    
    699000   305.51241      0.040035964    21.524775      757.98472     -76.157136      681.82759    
    700000   311.75749      0.040035964    21.305154      773.47892     -74.292427      699.18649    
    701000   308.82816      0.040035964    10.315664      766.21117     -73.460892      692.75028    
    702000   292.15449      0.040035964    25.482233      724.84335     -66.513358      658.32999    
    703000   307.78082      0.040035964    21.715397      763.61269     -70.118045      693.49464    
    704000   309.05978      0.040035964    10.466784      766.78584     -69.61381       697.17203    
    705000   290.85489      0.040035964    10.236018      721.619       -61.587405      660.0316     
    706000   297.87942      0.040035964    18.447375      739.04706     -66.17959       672.86747    
    707000   299.165        0.040035964    27.731101      742.23662     -59.474952      682.76167    
    708000   293.38013      0.040035964    28.861105      727.88419     -60.90021       666.98398    
    709000   308.74316      0.040035964    16.98255       766.00029     -66.022963      699.97733    
    710000   305.12642      0.040035964    19.784892      757.02705     -62.57023       694.45682    
    711000   298.0454       0.040035964    15.384969      739.45886     -63.215254      676.2436     
    712000   293.99808      0.040035964    15.642576      729.41733     -62.086584      667.33075    
    713000   308.05409      0.040035964    26.932411      764.29068     -63.98775       700.30293    
    714000   301.23712      0.040035964    24.234911      747.37761     -60.071485      687.30612    
    715000   296.8809       0.040035964    19.522201      736.5697      -61.044291      675.52541    
    716000   291.41759      0.040035964    3.6499854      723.01507     -58.099623      664.91545    
    717000   301.19195      0.040035964    41.315381      747.26553     -52.057997      695.20754    
    718000   297.04969      0.040035964    43.767303      736.98848     -61.105712      675.88276    
    719000   303.84676      0.040035964    1.6331491      753.8522      -63.62285       690.22935    
    720000   303.39584      0.040035964   -4.3387183      752.73344     -66.463444      686.27       
    721000   287.56435      0.040035964    54.067652      713.45508     -63.604339      649.85074    
    722000   304.6972       0.040035964    17.349488      755.96216     -60.171428      695.79074    
    723000   303.15687      0.040035964    12.291144      752.14054     -68.655474      683.48507    
    724000   291.33463      0.040035964    46.194943      722.80926     -70.777584      652.03167    
[...]
   7823000   287.51813      0.040035964    22.867071      713.3404      -69.573255      643.76714    
   7824000   300.90222      0.040035964    31.665984      746.5467      -71.4016        675.1451     
   7825000   305.16171      0.040035964    22.081754      757.11462     -67.413777      689.70084    
   7826000   301.36805      0.040035964    13.182394      747.70244     -71.720011      675.98243    
   7827000   298.6252       0.040035964    19.46899       740.89735     -64.850465      676.04689    
   7828000   290.81511      0.040035964    25.759727      721.52031     -70.698739      650.82157    
   7829000   297.87741      0.040035964    27.60123       739.04205     -67.233432      671.80862    
   7830000   313.96767      0.040035964    9.4201844      778.96244     -67.556063      711.40637    
   7831000   292.11784      0.040035964    21.740825      724.75241     -63.29969       661.45272    
   7832000   301.12252      0.040035964    24.010544      747.09327     -61.822825      685.27045    
   7833000   309.61749      0.040035964    19.586019      768.16953     -65.78845       702.38108    
   7834000   294.7736       0.040035964    19.44382       731.34143     -59.000804      672.34062    
   7835000   294.3415       0.040035964    21.124325      730.26938     -55.399015      674.87036    
   7836000   304.44916      0.040035964    23.66398       755.34677     -55.102406      700.24436    
   7837000   311.59291      0.040035964    21.310852      773.0706      -59.193836      713.87677    
   7838000   297.08211      0.040035964    15.428016      737.0689      -57.205337      679.86356    
   7839000   299.84504      0.040035964    18.423646      743.92381     -64.759505      679.1643     
   7840000   301.79975      0.040035964    25.839353      748.77349     -64.711008      684.06248    
   7841000   293.69693      0.040035964    27.544996      728.67019     -67.947369      660.72282    
   7842000   305.98103      0.040035964    3.8510952      759.14736     -66.889713      692.25765    
   7843000   297.15034      0.040035964    15.800177      737.23817     -59.219375      678.0188     
   7844000   296.77175      0.040035964    41.253928      736.29889     -59.364823      676.93407    
   7845000   301.82963      0.040035964    21.097799      748.84762     -65.014837      683.83278    
   7846000   299.33193      0.040035964    16.629773      742.65076     -59.449003      683.20175    
   7847000   292.96071      0.040035964    15.921872      726.84359     -63.962926      662.88067    
   7848000   307.52946      0.040035964    24.019274      762.98908     -67.974078      695.015      
   7849000   314.93627      0.040035964    17.830068      781.36558     -60.823257      720.54232    
   7850000   288.92171      0.040035964    9.7186275      716.82272     -68.959952      647.86277    
   7851000   293.63295      0.040035964    19.03444       728.51145     -76.243856      652.26759    
   7852000   301.0062       0.040035964    21.873057      746.80467     -71.890321      674.91435    
   7853000   307.05154      0.040035964    30.225886      761.80334     -73.219052      688.58429    
   7854000   298.01261      0.040035964   -5.9677594      739.3775      -70.430837      668.94666    
   7855000   301.93622      0.040035964    21.156618      749.11209     -68.464058      680.64804    
   7856000   313.79155      0.040035964    18.623258      778.52548     -67.125711      711.39977    
   7857000   293.97737      0.040035964    15.251419      729.36595     -62.785225      666.58073    
   7858000   290.9503       0.040035964    21.913327      721.85572     -67.15067       654.70505    
   7859000   293.09843      0.040035964    41.434288      727.18527     -77.313378      649.8719     
   7860000   305.65462      0.040035964    20.564804      758.33754     -79.354395      678.98315    
   7861000   293.4227       0.040035964    31.168016      727.9898      -75.65785       652.33195    
   7862000   310.87218      0.040035964    35.562934      771.28244     -77.902938      693.3795     
   7863000   309.52304      0.040035964    26.074433      767.9352      -70.353168      697.58203    
   7864000   315.15554      0.040035964    12.378847      781.90959     -74.164032      707.74556    
   7865000   294.0522       0.040035964    9.0765994      729.55162     -71.839857      657.71176    
   7866000   296.72557      0.040035964    32.530932      736.18432     -66.947394      669.23693    
   7867000   307.17857      0.040035964    36.185645      762.11851     -65.926928      696.19158    
   7868000   301.09484      0.040035964    14.185646      747.0246      -64.449974      682.57463    
   7869000   286.44049      0.040035964    14.612939      710.66675     -65.131083      645.53567    
   7870000   305.46416      0.040035964    25.058964      757.86499     -62.692341      695.17265    
   7871000   295.54862      0.040035964    27.863197      733.26428     -67.760377      665.5039     
   7872000   293.90866      0.040035964    22.055962      729.19548     -59.224914      669.97056    
   7873000   302.76568      0.040035964    35.666926      751.17        -63.547033      687.62297    
   7874000   327.0563       0.040035964    43.032023      811.4357      -62.973234      748.46247    
   7875000   310.24489      0.040035964    8.4357705      769.72612     -64.932962      704.79316    
   7876000   288.65145      0.040035964    15.1956        716.15221     -62.096495      654.05571    
   7877000   301.11353      0.040035964    21.732493      747.07097     -58.191848      688.87912    
   7878000   312.51422      0.040035964    29.769232      775.3564      -62.828292      712.52811    
   7879000   312.98917      0.040035964    16.387303      776.53476     -66.149818      710.38495    
   7880000   280.77428      0.040035964    15.158766      696.60872     -64.984148      631.62458    
   7881000   299.8156       0.040035964    24.377454      743.85076     -61.567836      682.28293    
   7882000   299.57043      0.040035964    16.50713       743.2425      -60.935954      682.30655    
   7883000   306.4516       0.040035964    9.9854289      760.31488     -61.212814      699.10206    
   7884000   297.23885      0.040035964    18.901035      737.45777     -61.152133      676.30564    
   7885000   298.63584      0.040035964    22.096354      740.92376     -73.225446      667.69831    
   7886000   306.37252      0.040035964    22.117087      760.11867     -69.522791      690.59588    
   7887000   295.38959      0.040035964    17.679765      732.86972     -77.697236      655.17248    
   7888000   307.01891      0.040035964    22.237892      761.72238     -69.251635      692.47074    
   7889000   304.06055      0.040035964    21.609165      754.3826      -70.186625      684.19598    
   7890000   307.65509      0.040035964    23.270738      763.30076     -64.321339      698.97942    
   7891000   293.08948      0.040035964    21.656096      727.16307     -59.99797       667.1651     
   7892000   298.9284       0.040035964    22.048049      741.64961     -66.694937      674.95467    
   7893000   307.4148       0.040035964    18.900676      762.7046      -60.852449      701.85215    
   7894000   289.87275      0.040035964    17.072273      719.18228     -61.575623      657.60666    
   7895000   301.61227      0.040035964    19.040006      748.30836     -59.705774      688.60258    
   7896000   318.47213      0.040035964    21.865526      790.13814     -53.211473      736.92666    
   7897000   302.38303      0.040035964    19.180726      750.22063     -63.283318      686.93731    
   7898000   293.97364      0.040035964    19.757493      729.3567      -53.958388      675.39832    
   7899000   301.86358      0.040035964    16.517248      748.93185     -68.029556      680.9023     
   7900000   313.23875      0.040035964    8.8618153      777.15397     -59.151794      718.00218    
   7901000   300.98232      0.040035964    29.934208      746.74543     -59.467843      687.27758    
   7902000   287.61031      0.040035964    20.151347      713.5691      -58.021034      655.54807    
   7903000   295.71305      0.040035964    11.782771      733.67224     -59.520664      674.15158    
   7904000   303.02688      0.040035964    20.573465      751.81804     -60.691702      691.12634    
   7905000   291.7066       0.040035964    24.939318      723.73212     -60.046502      663.68562    
   7906000   290.70137      0.040035964    19.021096      721.2381      -58.36065       662.87745    
   7907000   299.95442      0.040035964    15.142104      744.19519     -58.343995      685.85119    
   7908000   311.19456      0.040035964    13.712341      772.08229     -57.993895      714.08839    
   7909000   293.29915      0.040035964    26.612046      727.68329     -59.251011      668.43227    
   7910000   306.39456      0.040035964    10.54445       760.17335     -55.201868      704.97148    
   7911000   311.48303      0.040035964    31.656048      772.79799     -58.144396      714.65359    
   7912000   297.66133      0.040035964    19.828775      738.50598     -63.6137        674.89228    
   7913000   300.36844      0.040035964    15.764339      745.22239     -57.964045      687.25834    
   7914000   296.90932      0.040035964    23.099093      736.6402      -61.667729      674.97247    
   7915000   298.24224      0.040035964    23.445984      739.94721     -61.004428      678.94279    
   7916000   300.19997      0.040035964    15.881155      744.80439     -65.038198      679.76619    
   7917000   304.69863      0.040035964    21.092196      755.96569     -66.696387      689.26931    
   7918000   284.42357      0.040035964    19.98524       705.66272     -58.849726      646.81299    
   7919000   296.31357      0.040035964    24.002971      735.16215     -56.132719      679.02943    
   7920000   313.09179      0.040035964    18.41571       776.78937     -54.892345      721.89703    
   7921000   302.16643      0.040035964    20.067637      749.68323     -61.484167      688.19907    
   7922000   296.74802      0.040035964    20.699583      736.24003     -59.327244      676.91279    
   7923000   295.55497      0.040035964    19.40928       733.28003     -62.714006      670.56602    
   7924000   305.7571       0.040035964    18.967555      758.59179     -74.17925       684.41253    
   7925000   290.6708       0.040035964    18.48491       721.16228     -72.377298      648.78498    
   7926000   299.88633      0.040035964    24.18475       744.02624     -66.732654      677.29358    
   7927000   311.1972       0.040035964    23.785108      772.08883     -66.022769      706.06606    
   7928000   303.64988      0.040035964    22.074992      753.36373     -76.359207      677.00452    
   7929000   286.74954      0.040035964    16.365318      711.43352     -72.707016      638.7265     
   7930000   290.32128      0.040035964    21.754889      720.2951      -67.458137      652.83696    
   7931000   305.24018      0.040035964    20.75713       757.30929     -73.907036      683.40226    
   7932000   307.17175      0.040035964    26.665077      762.10158     -76.833         685.26858    
   7933000   297.32713      0.040035964    20.876294      737.67681     -72.870238      664.80658    
   7934000   312.35539      0.040035964    16.97847       774.96232     -65.496756      709.46557    
   7935000   288.4268       0.040035964    29.392351      715.59484     -63.842409      651.75243    
   7936000   293.82542      0.040035964    16.131628      728.98897     -62.833156      666.15581    
   7937000   302.27038      0.040035964    18.183085      749.94115     -67.013004      682.92814    
   7938000   305.66537      0.040035964    19.248007      758.36421     -72.674194      685.69002    
   7939000   296.09547      0.040035964    22.59654       734.62103     -67.313607      667.30742    
   7940000   312.89971      0.040035964    20.575487      776.31281     -67.66073       708.65208    
   7941000   302.39558      0.040035964    19.57684       750.25178     -72.049545      678.20223    
   7942000   293.07149      0.040035964    17.262974      727.11844     -75.019064      652.09938    
   7943000   317.64392      0.040035964    23.591858      788.08333     -66.770295      721.31303    
   7944000   308.75018      0.040035964    27.669647      766.01771     -68.560342      697.45737    
   7945000   293.85197      0.040035964    13.668883      729.05483     -66.95123       662.1036     
   7946000   320.96707      0.040035964    20.858059      796.32815     -66.004193      730.32395    
   7947000   302.33601      0.040035964    22.7891        750.10397     -57.256263      692.84771    
   7948000   295.42921      0.040035964    22.037401      732.96802     -58.340654      674.62737    
   7949000   305.14165      0.040035964    22.194235      757.06485     -57.149008      699.91584    
   7950000   305.74107      0.040035964    20.624402      758.55201     -60.28027       698.27174    
   7951000   316.79339      0.040035964    23.106362      785.97313     -57.105996      728.86713    
   7952000   295.46006      0.040035964    20.861229      733.04456     -61.44792       671.59664    
   7953000   300.06556      0.040035964    18.644606      744.47093     -62.421483      682.04944    
   7954000   302.51884      0.040035964    21.14134       750.55759     -62.819694      687.7379     
   7955000   296.52162      0.040035964    18.165777      735.67831     -66.276851      669.40146    
   7956000   308.60133      0.040035964    27.022656      765.64842     -59.968769      705.67965    
   7957000   304.18722      0.040035964    20.402408      754.69687     -65.803807      688.89307    
   7958000   309.2236       0.040035964    22.318678      767.19228     -64.184055      703.00822    
   7959000   294.4187       0.040035964    18.500899      730.46091     -63.11136       667.34955    
   7960000   297.16992      0.040035964    19.303844      737.28676     -64.223899      673.06286    
   7961000   285.56865      0.040035964    20.942047      708.50369     -64.47704       644.02665    
   7962000   303.90872      0.040035964    19.916858      754.0059      -66.614049      687.39185    
   7963000   310.48726      0.040035964    18.994186      770.32746     -69.522826      700.80463    
   7964000   293.25184      0.040035964    15.595901      727.56589     -69.594078      657.97181    
   7965000   297.53663      0.040035964    18.833612      738.19658     -66.997426      671.19915    
   7966000   298.29393      0.040035964    25.720909      740.07546     -68.660623      671.41484    
   7967000   305.05636      0.040035964    25.857126      756.85324     -66.554959      690.29828    
   7968000   317.15711      0.040035964    21.158003      786.87554     -53.289919      733.58562    
   7969000   296.21235      0.040035964    14.496423      734.91101     -56.839286      678.07172    
   7970000   287.24702      0.040035964    23.67238       712.66778     -64.603363      648.06442    
   7971000   309.7025       0.040035964    33.350149      768.38044     -58.076625      710.30381    
   7972000   309.30903      0.040035964    18.982703      767.40423     -58.761344      708.64289    
   7973000   281.56987      0.040035964    15.20658       698.58261     -60.462262      638.12034    
   7974000   289.94908      0.040035964    26.340837      719.37167     -60.647933      658.72373    
   7975000   313.21251      0.040035964    20.48118       777.08886     -62.042223      715.04664    
   7976000   308.96027      0.040035964    24.054531      766.53894     -68.712809      697.82614    
   7977000   297.67409      0.040035964    16.698525      738.53762     -66.11285       672.42477    
   7978000   308.30332      0.040035964    18.049445      764.90904     -65.798507      699.11053    
   7979000   292.52307      0.040035964    17.126555      725.75781     -64.610062      661.14774    
   7980000   295.0645       0.040035964    22.027694      732.06317     -71.034375      661.02879    
   7981000   316.88448      0.040035964    17.482586      786.19912     -66.906748      719.29238    
   7982000   301.16846      0.040035964    17.076805      747.20726     -68.627357      678.5799     
   7983000   282.91964      0.040035964    18.568598      701.93143     -69.504783      632.42665    
   7984000   308.51255      0.040035964    16.27731       765.42813     -65.458658      699.96947    
   7985000   305.99714      0.040035964    23.400591      759.18734     -70.664999      688.52234    
   7986000   284.96979      0.040035964    16.188388      707.0179      -72.954403      634.0635     
   7987000   301.43507      0.040035964    6.2612428      747.86873     -64.396535      683.47219    
   7988000   307.47054      0.040035964    22.472488      762.84289     -69.264308      693.57858    
   7989000   301.92675      0.040035964    14.607464      749.0886      -70.165634      678.92296    
   7990000   297.28316      0.040035964    19.563508      737.56772     -73.912005      663.65572    
   7991000   307.42472      0.040035964    30.770599      762.72921     -69.401018      693.32819    
   7992000   284.05627      0.040035964    28.154083      704.75145     -69.793939      634.95751    
   7993000   296.29419      0.040035964    17.865753      735.11404     -62.82319       672.29085    
   7994000   294.77411      0.040035964    14.056092      731.3427      -62.122359      669.22035    
   7995000   313.11906      0.040035964    21.11807       776.85702     -65.155894      711.70112    
   7996000   298.56371      0.040035964    19.964047      740.7448      -66.277465      674.46733    
   7997000   288.82215      0.040035964    24.949395      716.57572     -68.911577      647.66415    
   7998000   280.02268      0.040035964    12.477896      694.74399     -71.646484      623.0975     
   7999000   306.25691      0.040035964    13.6223        759.83185     -74.205676      685.62617    
   8000000   306.17526      0.040035964    24.910123      759.62925     -70.737122      688.89213    
Loop time of 14342.1 on 1 procs for 8000000 steps with 1500 atoms

Performance: 12.048 ns/day, 1.992 hours/ns, 557.798 timesteps/s, 836.697 katom-step/s
99.6% CPU use with 1 MPI tasks x 1 OpenMP threads

MPI task timing breakdown:
Section |  min time  |  avg time  |  max time  |%varavg| %total
---------------------------------------------------------------
Pair    | 1251.2     | 1251.2     | 1251.2     |   0.0 |  8.72
Bond    | 356.19     | 356.19     | 356.19     |   0.0 |  2.48
Kspace  | 11085      | 11085      | 11085      |   0.0 | 77.29
Neigh   | 0.06593    | 0.06593    | 0.06593    |   0.0 |  0.00
Comm    | 57.422     | 57.422     | 57.422     |   0.0 |  0.40
Output  | 0.26593    | 0.26593    | 0.26593    |   0.0 |  0.00
Modify  | 1557.9     | 1557.9     | 1557.9     |   0.0 | 10.86
Other   |            | 33.72      |            |       |  0.24

Nlocal:           1500 ave        1500 max        1500 min
Histogram: 1 0 0 0 0 0 0 0 0 0
Nghost:           1690 ave        1690 max        1690 min
Histogram: 1 0 0 0 0 0 0 0 0 0
Neighs:              0 ave           0 max           0 min
Histogram: 1 0 0 0 0 0 0 0 0 0

Total # of neighbors = 0
Ave neighs/atom = 0
Ave special neighs/atom = 2
Neighbor list builds = 29597
Dangerous builds = 0
write_data	last_conf.data pair ij
System init for write_data ...
PPPM initialization ...
  using 12-bit tables for long-range coulomb (src/kspace.cpp:342)
  G vector (1/distance) = 0.17795223
  grid = 24 24 24
  stencil order = 5
  estimated absolute RMS force accuracy = 0.028170818
  estimated relative force accuracy = 8.483558e-05
  using double precision FFTW3
  3d grid and FFT values/proc = 24389 13824
Generated 1 of 1 mixed pair_coeff terms from arithmetic mixing rule
Total wall time: 3:59:02
