LAMMPS data file via write_data, version 29 Aug 2024, timestep = 0, units = real

1500 atoms
2 atom types
1000 bonds
1 bond types
500 angles
1 angle types

0 90 xlo xhi
0 90 ylo yhi
0 90 zlo zhi

Masses

1 12.0107
2 15.9994

PairIJ Coeffs # lj/cut/coul/long/gpu

1 1 0.053649 2.8 12
1 2 0.0917684 2.925 12
2 2 0.156973 3.05 12

Bond Coeffs # harmonic

1 0 1.16

Angle Coeffs # harmonic

1 0 180

Atoms # full

1 1 1 0.7 6.63090042613023 25.54346197077234 8.965342770780131 0 0 0
2 1 2 -0.35 5.623239681888014 25.7811479964059 8.442155253983573 0 0 0
3 1 2 -0.35 7.638561170372446 25.305775945138784 9.488530287576689 0 0 0
4 2 1 0.7 20.515948501655807 21.546467329164255 61.47640126360413 0 0 0
5 2 2 -0.35 20.86326835778539 22.047034419976466 60.48928348687537 0 0 0
6 2 2 -0.35 20.168628645526223 21.045900238352043 62.46351904033289 0 0 0
7 3 1 0.7 33.876037394570204 14.560490541421105 8.164529664518557 0 0 0
8 3 2 -0.35 33.41342853961723 13.496727326584596 8.163596883842525 0 0 0
9 3 2 -0.35 34.33864624952318 15.624253756257614 8.16546244519459 0 0 0
10 4 1 0.7 61.25007156340874 9.952766210750102 56.141704076967066 0 0 0
11 4 2 -0.35 60.165012245649734 10.151810148901264 56.500351240108834 0 0 0
12 4 2 -0.35 62.33513088116774 9.75372227259894 55.7830569138253 0 0 0
13 5 1 0.7 13.620421585450146 48.42558666059076 18.83500454893103 0 0 0
14 5 2 -0.35 13.447762810405724 48.71056511011099 19.946119408299403 0 0 0
15 5 2 -0.35 13.793080360494567 48.14060821107053 17.723889689562654 0 0 0
16 6 1 0.7 29.92145388383486 59.875425612495945 36.278269219341816 0 0 0
17 6 2 -0.35 28.833979699445447 60.048985257686205 35.91374631492015 0 0 0
18 6 2 -0.35 31.008928068224275 59.701865967305686 36.642792123763485 0 0 0
19 7 1 0.7 68.87076947785484 21.022614306315134 77.07864623846423 0 0 0
20 7 2 -0.35 67.84939687828967 21.285290422562458 76.59553209997237 0 0 0
21 7 2 -0.35 69.89214207742 20.75993819006781 77.56176037695609 0 0 0
22 8 1 0.7 0.8073298683424154 68.79309723097509 65.58516099843438 0 0 0
23 8 2 -0.35 0.3324364686127119 69.81052951279848 65.87655044710544 0 0 0
24 8 2 -0.35 1.2822232680721188 67.7756649491517 65.2937715497633 0 0 0
25 9 1 0.7 59.80090068643955 43.737836989452056 71.82628172069148 0 0 0
26 9 2 -0.35 59.46014368339076 44.44985556460578 70.9762733598448 0 0 0
27 9 2 -0.35 60.14165768948833 43.025818414298335 72.67629008153817 0 0 0
28 10 1 0.7 14.316879661901332 53.79647757569165 17.398614649380843 0 0 0
29 10 2 -0.35 14.323458971875676 52.83693560147439 18.050409028303758 0 0 0
30 10 2 -0.35 14.310300351926989 54.756019549908906 16.746820270457928 0 0 0
31 11 1 0.7 8.516412143835991 35.33890145148099 30.916695041077535 0 0 0
32 11 2 -0.35 8.122001172283445 35.30972337263333 32.00719429611338 0 0 0
33 11 2 -0.35 8.910823115388537 35.36807953032866 29.826195786041687 0 0 0
34 12 1 0.7 46.893555390133315 9.985441970632152 65.3232004145734 0 0 0
35 12 2 -0.35 45.97421661150655 10.66885026191374 65.50587312058235 0 0 0
36 12 2 -0.35 47.81289416876008 9.302033679350565 65.14052770856446 0 0 0
37 13 1 0.7 67.02936773515742 32.58352479086422 71.30116005488725 0 0 0
38 13 2 -0.35 67.11433791197956 31.432682232855747 71.18308602841515 0 0 0
39 13 2 -0.35 66.94439755833528 33.73436734887269 71.41923408135935 0 0 0
40 14 1 0.7 8.597042490074896 40.49313068878517 78.04748641236102 0 0 0
41 14 2 -0.35 7.8960230845658375 40.15229874304067 78.90655880620204 0 0 0
42 14 2 -0.35 9.298061895583954 40.83396263452968 77.18841401852 0 0 0
43 15 1 0.7 84.10413255174836 88.15579723480893 54.484125433715114 0 0 0
44 15 2 -0.35 83.31749547453457 88.16191220296913 53.6316204683824 0 0 0
45 15 2 -0.35 84.89076962896216 88.14968226664872 55.33663039904783 0 0 0
46 16 1 0.7 54.69616445000105 18.435911167615984 72.35899412183045 0 0 0
47 16 2 -0.35 53.54663714638015 18.285735844220437 72.3185670211046 0 0 0
48 16 2 -0.35 55.84569175362195 18.58608649101153 72.3994212225563 0 0 0
49 17 1 0.7 57.614205604239466 11.95359045264944 23.994737679136332 0 0 0
50 17 2 -0.35 56.64247913426217 12.525279222493381 24.267720495408316 0 0 0
51 17 2 -0.35 58.585932074216764 11.381901682805498 23.721754862864348 0 0 0
52 18 1 0.7 79.55617324428454 60.603716690374405 36.66641512264796 0 0 0
53 18 2 -0.35 78.74053470739607 61.22550214381935 36.12445882641485 0 0 0
54 18 2 -0.35 80.37181178117301 59.98193123692946 37.20837141888107 0 0 0
55 19 1 0.7 22.438966344315077 31.707348903504826 15.413021205651116 0 0 0
56 19 2 -0.35 22.25922570580709 32.01896750525943 14.31021245073971 0 0 0
57 19 2 -0.35 22.618706982823063 31.39573030175022 16.51582996056252 0 0 0
58 20 1 0.7 26.647403378341068 22.908579778349296 4.500334716634981 0 0 0
59 20 2 -0.35 27.567862504771945 22.843887901919754 5.2033069477324325 0 0 0
60 20 2 -0.35 25.72694425191019 22.973271654778838 3.79736248553753 0 0 0
61 21 1 0.7 37.12558248412124 89.66481062568016 36.47218580659115 0 0 0
62 21 2 -0.35 37.935219155250294 88.9363401406464 36.87145916307481 0 0 0
63 21 2 -0.35 36.31594581299218 0.3932811107139287 36.07291245010749 0 1 0
64 22 1 0.7 88.02685137746244 47.291101011117505 31.534693851850317 0 0 0
65 22 2 -0.35 87.10154636493263 46.60672760918404 31.389629450589265 0 0 0
66 22 2 -0.35 88.95215638999224 47.97547441305097 31.67975825311137 0 0 0
67 23 1 0.7 83.5995680483056 67.94018787235962 40.73757074807658 0 0 0
68 23 2 -0.35 84.36220679355206 68.53989941274479 40.10170267010935 0 0 0
69 23 2 -0.35 82.83692930305914 67.34047633197444 41.37343882604381 0 0 0
70 24 1 0.7 46.35156292298415 80.7180465947455 58.20911788763903 0 0 0
71 24 2 -0.35 45.53212520782421 81.45792340906881 58.56507312443189 0 0 0
72 24 2 -0.35 47.17100063814409 79.97816978042219 57.85316265084617 0 0 0
73 25 1 0.7 20.64433754917436 19.38118897349629 29.643077552152366 0 0 0
74 25 2 -0.35 19.60051688224617 18.897822714864166 29.493426373374614 0 0 0
75 25 2 -0.35 21.68815821610255 19.864555232128414 29.79272873093012 0 0 0
76 26 1 0.7 61.20441902484951 52.67055064564131 83.94470129345763 0 0 0
77 26 2 -0.35 60.12335288143212 52.96745897066329 83.64680627824372 0 0 0
78 26 2 -0.35 62.285485168266895 52.37364232061934 84.24259630867154 0 0 0
79 27 1 0.7 18.59463914232079 40.10006498550068 41.792211309909916 0 0 0
80 27 2 -0.35 17.747954521256705 40.02582841302766 41.00277221551376 0 0 0
81 27 2 -0.35 19.441323763384876 40.1743015579737 42.581650404306075 0 0 0
82 28 1 0.7 41.69548565600788 36.02742052452053 82.8567556165423 0 0 0
83 28 2 -0.35 40.8651889267041 36.581972836936856 83.44724615338531 0 0 0
84 28 2 -0.35 42.525782385311665 35.4728682121042 82.2662650796993 0 0 0
85 29 1 0.7 3.4916472264992295 4.114935772547002 39.72552919747565 0 0 0
86 29 2 -0.35 2.332274551657685 4.13972959672369 39.75451655874667 0 0 0
87 29 2 -0.35 4.651019901340774 4.090141948370315 39.69654183620463 0 0 0
88 30 1 0.7 46.96922197331172 21.713705450163086 82.24750089098117 0 0 0
89 30 2 -0.35 46.04939648397541 21.762739762191558 81.54243585468231 0 0 0
90 30 2 -0.35 47.88904746264803 21.664671138134615 82.95256592728003 0 0 0
91 31 1 0.7 23.747474720583984 63.80762885501964 64.81816631500523 0 0 0
92 31 2 -0.35 24.05965486221794 62.822086842641696 64.29200046566926 0 0 0
93 31 2 -0.35 23.435294578950028 64.79317086739758 65.3443321643412 0 0 0
94 32 1 0.7 38.92125629304035 29.554517129228692 12.76939094661241 0 0 0
95 32 2 -0.35 38.129885018576246 28.7070623810524 12.735450473037064 0 0 0
96 32 2 -0.35 39.712627567504455 30.401971877404986 12.803331420187755 0 0 0
97 33 1 0.7 55.15363971477078 57.222686152543254 1.686165794584046 0 0 0
98 33 2 -0.35 54.01250820267911 57.05932039091752 1.8155122287823144 0 0 0
99 33 2 -0.35 56.29477122686246 57.38605191416899 1.5568193603857776 0 0 0
100 34 1 0.7 79.3885095740615 32.68041125157867 79.67190528273206 0 0 0
101 34 2 -0.35 78.38989195078351 32.62800363272484 79.08401389483402 0 0 0
102 34 2 -0.35 80.3871271973395 32.732818870432496 80.2597966706301 0 0 0
103 35 1 0.7 25.71208687765155 53.04415268965259 63.07425499105558 0 0 0
104 35 2 -0.35 24.56587531692569 53.222354780316884 63.067691993168616 0 0 0
105 35 2 -0.35 26.85829843837741 52.8659505989883 63.08081798894255 0 0 0
106 36 1 0.7 69.00363467121666 4.087919138412885 35.65695930535763 0 0 0
107 36 2 -0.35 68.02300187396017 3.5330709445116435 35.932826662378076 0 0 0
108 36 2 -0.35 69.98426746847315 4.6427673323141265 35.381091948337186 0 0 0
109 37 1 0.7 66.51504514576636 28.363764895295613 69.79659523339784 0 0 0
110 37 2 -0.35 65.35583848246242 28.361185891021226 69.7537786421198 0 0 0
111 37 2 -0.35 67.67425180907031 28.36634389957 69.83941182467588 0 0 0
112 38 1 0.7 11.376087717421392 37.90626670136408 70.62444982613644 0 0 0
113 38 2 -0.35 11.419075826399096 38.51554888607007 69.63828186788267 0 0 0
114 38 2 -0.35 11.333099608443687 37.29698451665809 71.61061778439021 0 0 0
115 39 1 0.7 65.12822787516201 30.12589784810594 75.96513311656432 0 0 0
116 39 2 -0.35 64.3396410107586 29.411326856212064 75.5034849227693 0 0 0
117 39 2 -0.35 65.91681473956542 30.840468839999815 76.42678131035933 0 0 0
118 40 1 0.7 5.992290096353875 2.4196494195701783 77.04779471598928 0 0 0
119 40 2 -0.35 5.74061183686251 2.4602303104820282 78.1794356683201 0 0 0
120 40 2 -0.35 6.243968355845239 2.3790685286583284 75.91615376365847 0 0 0
121 41 1 0.7 22.2857916319211 67.29995769788509 80.38902835472908 0 0 0
122 41 2 -0.35 21.764759201181036 68.05267897188816 79.6766128230481 0 0 0
123 41 2 -0.35 22.806824062661164 66.54723642388203 81.10144388641005 0 0 0
124 42 1 0.7 18.39955793153474 1.3701553043770396 78.20020066490406 0 0 0
125 42 2 -0.35 17.256937601393027 1.2036748213016268 78.31111968897937 0 0 0
126 42 2 -0.35 19.542178261676455 1.5366357874524523 78.08928164082874 0 0 0
127 43 1 0.7 40.772575042570274 4.668740478655668 77.52122476581542 0 0 0
128 43 2 -0.35 41.87763461457778 4.726506785823661 77.17322132320204 0 0 0
129 43 2 -0.35 39.66751547056277 4.610974171487674 77.8692282084288 0 0 0
130 44 1 0.7 59.22463905961469 78.50867494405651 5.299784757802163 0 0 0
131 44 2 -0.35 58.60386020396028 79.39099675077212 4.8734728511346255 0 0 0
132 44 2 -0.35 59.845417915269095 77.6263531373409 5.726096664469701 0 0 0
133 45 1 0.7 63.48242438094803 89.1065705935967 14.13196657976693 0 0 0
134 45 2 -0.35 62.3604597915472 88.87457727620433 14.31355556846369 0 0 0
135 45 2 -0.35 64.60438897034886 89.33856391098907 13.95037759107017 0 0 0
136 46 1 0.7 5.962306142767103 38.47934148669212 72.29236683449352 0 0 0
137 46 2 -0.35 5.654557270318858 38.13661234236232 73.35699229217045 0 0 0
138 46 2 -0.35 6.270055015215348 38.82207063102192 71.2277413768166 0 0 0
139 47 1 0.7 17.809387332671037 72.37290020211269 21.333696908007234 0 0 0
140 47 2 -0.35 17.085777394916462 72.52115996217653 22.228128404282177 0 0 0
141 47 2 -0.35 18.53299727042561 72.22464044204885 20.43926541173229 0 0 0
142 48 1 0.7 85.44393287759458 16.17987373200239 45.13781376422281 0 0 0
143 48 2 -0.35 84.4338845302968 15.614896197453803 45.21657112309437 0 0 0
144 48 2 -0.35 86.45398122489236 16.74485126655098 45.05905640535126 0 0 0
145 49 1 0.7 21.23593529278223 62.36446579097047 19.576548840653405 0 0 0
146 49 2 -0.35 21.416107063998123 61.473731374426634 18.85562559089568 0 0 0
147 49 2 -0.35 21.055763521566337 63.25520020751431 20.29747209041113 0 0 0
148 50 1 0.7 73.05636486180889 78.32423242196639 55.37431598891239 0 0 0
149 50 2 -0.35 72.38657274641785 77.53161240671523 55.89270969410494 0 0 0
150 50 2 -0.35 73.72615697719992 79.11685243721755 54.85592228371985 0 0 0
151 51 1 0.7 76.12882565061041 57.172709809230966 61.73376374493063 0 0 0
152 51 2 -0.35 75.30491588394932 57.72764843528349 62.332776113513624 0 0 0
153 51 2 -0.35 76.9527354172715 56.61777118317844 61.13475137634763 0 0 0
154 52 1 0.7 39.367261049043044 55.556451266424936 77.27643480397595 0 0 0
155 52 2 -0.35 39.316114589738895 54.39761111632106 77.28501071254975 0 0 0
156 52 2 -0.35 39.418407508347194 56.715291416528814 77.26785889540214 0 0 0
157 53 1 0.7 85.03975042376656 63.085372244513295 75.85131353505483 0 0 0
158 53 2 -0.35 84.00007906234674 63.00752755203711 75.34276298290023 0 0 0
159 53 2 -0.35 86.07942178518638 63.16321693698948 76.35986408720943 0 0 0
160 54 1 0.7 73.02658366645993 27.791682192027423 84.80260140486183 0 0 0
161 54 2 -0.35 72.30637339126514 28.661150587601977 85.0689130054369 0 0 0
162 54 2 -0.35 73.74679394165472 26.92221379645287 84.53628980428677 0 0 0
163 55 1 0.7 37.32181151272813 57.686094421747185 50.18894630493081 0 0 0
164 55 2 -0.35 36.49856775118449 57.51917264126196 50.98895057259387 0 0 0
165 55 2 -0.35 38.145055274271776 57.85301620223241 49.388942037267746 0 0 0
166 56 1 0.7 45.6205469722024 34.53296180559926 75.4890667067324 0 0 0
167 56 2 -0.35 44.48149098663727 34.4780834294781 75.27660535593525 0 0 0
168 56 2 -0.35 46.75960295776753 34.587840181720416 75.70152805752956 0 0 0
169 57 1 0.7 14.744140051651812 34.761848111991696 52.381218244499166 0 0 0
170 57 2 -0.35 13.635797976667027 34.82960360251716 52.04567832389049 0 0 0
171 57 2 -0.35 15.852482126636597 34.69409262146623 52.71675816510784 0 0 0
172 58 1 0.7 81.1350352974306 46.538243916136324 68.26549850323494 0 0 0
173 58 2 -0.35 81.50808308942102 45.529589260278925 68.7002986068553 0 0 0
174 58 2 -0.35 80.76198750544019 47.54689857199372 67.83069839961458 0 0 0
175 59 1 0.7 18.233343869556368 87.81041563386583 9.655558382931892 0 0 0
176 59 2 -0.35 17.977306812335502 86.75365119375293 9.251461929789137 0 0 0
177 59 2 -0.35 18.489380926777233 88.86718007397873 10.059654836074646 0 0 0
178 60 1 0.7 10.96974193629331 48.45272328166884 24.920195008125248 0 0 0
179 60 2 -0.35 9.949934208533323 48.18745558654382 24.435194752121117 0 0 0
180 60 2 -0.35 11.989549664053298 48.71799097679386 25.40519526412938 0 0 0
181 61 1 0.7 63.717501561025855 80.04873616157506 59.108667592102975 0 0 0
182 61 2 -0.35 62.64712615472618 80.34342502266534 59.44490406356037 0 0 0
183 61 2 -0.35 64.78787696732553 79.75404730048479 58.77243112064558 0 0 0
184 62 1 0.7 19.3762204746605 36.13751761901077 43.258622713973104 0 0 0
185 62 2 -0.35 19.940273270163257 36.94862873643978 43.866523362984594 0 0 0
186 62 2 -0.35 18.812167679157742 35.326406501581765 42.65072206496161 0 0 0
187 63 1 0.7 27.671953745964892 52.52660843195701 4.707915901536083 0 0 0
188 63 2 -0.35 26.608084948699773 52.951797842199795 4.526264731369036 0 0 0
189 63 2 -0.35 28.73582254323001 52.10141902171422 4.88956707170313 0 0 0
190 64 1 0.7 15.942557116943672 16.557464472277772 1.305385572512348 0 0 0
191 64 2 -0.35 15.982804446615733 17.46460388529627 0.5835280811730098 0 0 0
192 64 2 -0.35 15.90230978727161 15.650325059259274 2.027243063851686 0 0 0
193 65 1 0.7 69.61531721503256 24.63643305219544 64.53030824872214 0 0 0
194 65 2 -0.35 69.8853254673145 24.0226267295197 65.47684791611222 0 0 0
195 65 2 -0.35 69.34530896275062 25.250239374871178 63.583768581332045 0 0 0
196 66 1 0.7 60.89073627297335 0.604539863115428 80.5014793809976 0 0 0
197 66 2 -0.35 60.14792887040212 0.831367422646854 79.63986089180275 0 0 0
198 66 2 -0.35 61.63354367554458 0.3777123035840019 81.36309787019243 0 0 0
199 67 1 0.7 18.36395642643979 33.01565917349218 44.18372888312849 0 0 0
200 67 2 -0.35 17.9677309251292 32.02431433323276 43.73003211236393 0 0 0
201 67 2 -0.35 18.760181927750377 34.007004013751605 44.63742565389305 0 0 0
202 68 1 0.7 5.931338740480755 58.010211260062746 7.62064787448414 0 0 0
203 68 2 -0.35 5.27664078182894 58.67591428991425 6.932309252159583 0 0 0
204 68 2 -0.35 6.5860366991325705 57.34450823021124 8.308986496808696 0 0 0
205 69 1 0.7 10.228826454947157 15.886228296852778 59.83898520462168 0 0 0
206 69 2 -0.35 9.12645768584905 15.942438447909534 60.1956692606647 0 0 0
207 69 2 -0.35 11.331195224045263 15.830018145796021 59.48230114857866 0 0 0
208 70 1 0.7 53.82433407652394 35.582824137798895 80.52528398601584 0 0 0
209 70 2 -0.35 52.710563707678816 35.660940443498596 80.21062002515215 0 0 0
210 70 2 -0.35 54.93810444536906 35.50470783209919 80.83994794687952 0 0 0
211 71 1 0.7 58.447952968277015 74.74553783179519 28.254338981702148 0 0 0
212 71 2 -0.35 59.49127413885947 74.30646183931555 28.50790003518329 0 0 0
213 71 2 -0.35 57.40463179769456 75.18461382427483 28.000777928221005 0 0 0
214 72 1 0.7 30.675265468040138 39.186721350618974 81.22573985309607 0 0 0
215 72 2 -0.35 29.51802099913241 39.20500417674238 81.3035278820685 0 0 0
216 72 2 -0.35 31.832509936947865 39.16843852449557 81.14795182412365 0 0 0
217 73 1 0.7 41.00971098570605 30.212536761636166 2.105352819014971 0 0 0
218 73 2 -0.35 40.95782384517357 31.30651153418532 2.487618331026444 0 0 0
219 73 2 -0.35 41.06159812623853 29.118561989087013 1.7230873070034978 0 0 0
220 74 1 0.7 14.664829184610783 51.78410575342556 35.46539782335302 0 0 0
221 74 2 -0.35 13.515478439415448 51.879720966488115 35.34109739877639 0 0 0
222 74 2 -0.35 15.814179929806118 51.688490540363 35.589698247929654 0 0 0
223 75 1 0.7 86.94121709416677 71.03570166092166 47.03781511030989 0 0 0
224 75 2 -0.35 86.40392722530183 70.34337775411679 46.277810370271034 0 0 0
225 75 2 -0.35 87.47850696303172 71.72802556772653 47.79781985034875 0 0 0
226 76 1 0.7 4.558558978400454 25.700749976421125 42.504853709835956 0 0 0
227 76 2 -0.35 5.515973210326188 26.02941934601406 43.07136446348273 0 0 0
228 76 2 -0.35 3.6011447464747186 25.37208060682819 41.93834295618918 0 0 0
229 77 1 0.7 49.07630121292374 65.39448560932395 5.119635907523165 0 0 0
230 77 2 -0.35 48.25677069428113 65.9999928310776 4.565261725749209 0 0 0
231 77 2 -0.35 49.895831731566346 64.7889783875703 5.674010089297121 0 0 0
232 78 1 0.7 5.720697741825459 27.766946860480562 29.075884096825444 0 0 0
233 78 2 -0.35 5.8566503303716315 27.259688444951554 28.041569931040893 0 0 0
234 78 2 -0.35 5.584745153279287 28.27420527600957 30.110198262609995 0 0 0
235 79 1 0.7 68.38401534519345 30.145906666361682 52.25334154081221 0 0 0
236 79 2 -0.35 67.47107825610526 29.522089591941587 51.9026306498648 0 0 0
237 79 2 -0.35 69.29695243428164 30.769723740781778 52.60405243175962 0 0 0
238 80 1 0.7 1.9112764307815937 82.8229721462461 65.69286195826385 0 0 0
239 80 2 -0.35 2.846385779712616 82.22985771529589 66.03838442835864 0 0 0
240 80 2 -0.35 0.9761670818505713 83.41608657719631 65.34733948816906 0 0 0
241 81 1 0.7 69.93093254041436 19.183206744111704 32.15574828542571 0 0 0
242 81 2 -0.35 69.1869288130935 20.018994063833393 32.461555430412716 0 0 0
243 81 2 -0.35 70.67493626773522 18.347419424390015 31.8499411404387 0 0 0
244 82 1 0.7 81.66143314990282 73.70695041665199 32.71565267011321 0 0 0
245 82 2 -0.35 81.93683199770457 72.66725271631607 33.150145669534 0 0 0
246 82 2 -0.35 81.38603430210107 74.74664811698791 32.28115967069242 0 0 0
247 83 1 0.7 41.974426592688275 44.187743311835334 73.4018420164482 0 0 0
248 83 2 -0.35 41.09114893097103 44.236367229611 72.651471250139 0 0 0
249 83 2 -0.35 42.85770425440552 44.13911939405967 74.1522127827574 0 0 0
250 84 1 0.7 34.75877044478374 0.6548654803330384 26.324127957375783 0 0 0
251 84 2 -0.35 35.90987685501592 0.5115302002856336 26.32112299213128 0 0 0
252 84 2 -0.35 33.60766403455156 0.7982007603804432 26.327132922620287 0 0 0
253 85 1 0.7 79.6185796147299 29.467584765268295 81.69714986425691 0 0 0
254 85 2 -0.35 80.52455722964933 28.787484960032838 81.44761266025 0 0 0
255 85 2 -0.35 78.71260199981046 30.147684570503753 81.94668706826383 0 0 0
256 86 1 0.7 43.997768566011345 30.496288952648772 1.1284271679485343 0 0 0
257 86 2 -0.35 43.362417910359994 30.811429212279112 2.0463684302978855 0 0 0
258 86 2 -0.35 44.633119221662696 30.181148693018432 0.2104859055991828 0 0 0
259 87 1 0.7 65.47541171101639 15.244627052566328 76.44687248228438 0 0 0
260 87 2 -0.35 65.16197628014324 14.735588223838247 77.44097393662418 0 0 0
261 87 2 -0.35 65.78884714188955 15.753665881294408 75.45277102794458 0 0 0
262 88 1 0.7 2.5858097535491966 79.70452790134797 34.00043795537224 0 0 0
263 88 2 -0.35 2.590460480047735 79.44567087081671 32.86969863594996 0 0 0
264 88 2 -0.35 2.581159027050658 79.96338493187923 35.131177274794524 0 0 0
265 89 1 0.7 35.36071594122831 37.552824224137154 70.31673507314024 0 0 0
266 89 2 -0.35 34.5846212811229 38.045489044263526 69.60923351585168 0 0 0
267 89 2 -0.35 36.136810601333714 37.06015940401078 71.02423663042879 0 0 0
268 90 1 0.7 23.36637426790147 48.652320619976294 49.55265994162888 0 0 0
269 90 2 -0.35 24.120512142142093 47.87656591888284 49.97108641111575 0 0 0
270 90 2 -0.35 22.612236393660847 49.42807532106975 49.134233472142014 0 0 0
271 91 1 0.7 61.55563895663044 15.623944087710205 61.628282145423945 0 0 0
272 91 2 -0.35 60.549620963014185 15.425451704910728 61.085945930064035 0 0 0
273 91 2 -0.35 62.56165695024669 15.822436470509682 62.170618360783855 0 0 0
274 92 1 0.7 66.53801814026107 54.47088336780243 12.136762655403821 0 0 0
275 92 2 -0.35 65.65203844905902 54.17838595786024 12.82602693850184 0 0 0
276 92 2 -0.35 67.42399783146313 54.763380777744615 11.447498372305802 0 0 0
277 93 1 0.7 42.569949372005624 63.139095298545016 78.77468264604671 0 0 0
278 93 2 -0.35 41.410953349446764 63.09190698265589 78.78475650013966 0 0 0
279 93 2 -0.35 43.728945394564484 63.18628361443414 78.76460879195376 0 0 0
280 94 1 0.7 66.0912321070634 15.338023414527077 26.159527956582387 0 0 0
281 94 2 -0.35 66.18068716533556 14.675726166792753 27.107663046215222 0 0 0
282 94 2 -0.35 66.00177704879125 16.0003206622614 25.211392866949552 0 0 0
283 95 1 0.7 13.186366280161947 43.25807068182997 18.39394951630102 0 0 0
284 95 2 -0.35 12.03547451034562 43.119376897001715 18.436519085467932 0 0 0
285 95 2 -0.35 14.337258049978272 43.396764466658226 18.35137994713411 0 0 0
286 96 1 0.7 87.10952047124017 19.710560133545922 75.38416450628274 0 0 0
287 96 2 -0.35 86.49133969100845 20.045686052544117 76.3067386991625 0 0 0
288 96 2 -0.35 87.7277012514719 19.375434214547727 74.461590313403 0 0 0
289 97 1 0.7 51.65285709391016 79.56917734796608 9.163687266019958 0 0 0
290 97 2 -0.35 51.64485944541964 80.03064503435846 8.099458149694776 0 0 0
291 97 2 -0.35 51.66085474240067 79.1077096615737 10.22791638234514 0 0 0
292 98 1 0.7 24.091879997445215 2.22711706172075 81.15645634064286 0 0 0
293 98 2 -0.35 23.80042958938623 1.6433601214433469 82.11556243191755 0 0 0
294 98 2 -0.35 24.3833304055042 2.8108740019981533 80.19735024936817 0 0 0
295 99 1 0.7 46.56171718452205 12.780720262220465 65.56544713935136 0 0 0
296 99 2 -0.35 45.464415566943835 12.505068461508026 65.30942908369079 0 0 0
297 99 2 -0.35 47.65901880210027 13.056372062932903 65.82146519501194 0 0 0
298 100 1 0.7 88.47007107849701 26.48461629938549 76.94614377196233 0 0 0
299 100 2 -0.35 88.20248055881582 27.601489820284286 76.78308288734594 0 0 0
300 100 2 -0.35 88.7376615981782 25.367742778486694 77.10920465657871 0 0 0
301 101 1 0.7 23.838375370874246 61.574858283426074 68.64316954214274 0 0 0
302 101 2 -0.35 22.967239267781828 61.479490310582236 67.88315188468694 0 0 0
303 101 2 -0.35 24.709511473966664 61.67022625626991 69.40318719959855 0 0 0
304 102 1 0.7 65.75049479294125 48.56598496370296 38.50928495568656 0 0 0
305 102 2 -0.35 66.84581522376813 48.94783398967923 38.50125531221931 0 0 0
306 102 2 -0.35 64.65517436211438 48.18413593772669 38.51731459915381 0 0 0
307 103 1 0.7 35.55225022395712 16.6695140472937 84.52259286517398 0 0 0
308 103 2 -0.35 34.52614704459387 16.12983552740032 84.4843912884221 0 0 0
309 103 2 -0.35 36.578353403320364 17.209192567187078 84.56079444192585 0 0 0
310 104 1 0.7 11.218284979098609 85.71564371032439 82.82383942176767 0 0 0
311 104 2 -0.35 10.058690121045014 85.73748382576055 82.80232722677503 0 0 0
312 104 2 -0.35 12.377879837152204 85.69380359488822 82.84535161676031 0 0 0
313 105 1 0.7 80.26916164917367 73.79983766181387 63.871582105696 0 0 0
314 105 2 -0.35 79.38921844974243 74.4458964133166 63.47927093407144 0 0 0
315 105 2 -0.35 81.1491048486049 73.15377891031113 64.26389327732056 0 0 0
316 106 1 0.7 59.68045043278507 89.33042381858938 86.43311903180233 0 0 0
317 106 2 -0.35 58.55042135931923 89.25185000040267 86.18319814788606 0 0 0
318 106 2 -0.35 60.810479506250914 89.40899763677609 86.68303991571861 0 0 0
319 107 1 0.7 81.43156750194336 80.35500516200206 76.57175776854706 0 0 0
320 107 2 -0.35 82.13056001512048 79.43752712170216 76.69522238732428 0 0 0
321 107 2 -0.35 80.73257498876625 81.27248320230196 76.44829314976984 0 0 0
322 108 1 0.7 31.53281597026289 52.03801220843476 72.87118716299123 0 0 0
323 108 2 -0.35 32.68386877479372 52.082338791086116 73.00798115135387 0 0 0
324 108 2 -0.35 30.38176316573206 51.9936856257834 72.7343931746286 0 0 0
325 109 1 0.7 26.042648393680643 28.79155259057486 59.62438979168627 0 0 0
326 109 2 -0.35 24.894740733063845 28.89275005667281 59.491472239976126 0 0 0
327 109 2 -0.35 27.190556054297442 28.69035512447691 59.75730734339641 0 0 0
328 110 1 0.7 47.11922887112909 22.879637066684495 58.060179766295555 0 0 0
329 110 2 -0.35 47.89047164870175 23.644853466780937 58.46666277832121 0 0 0
330 110 2 -0.35 46.34798609355643 22.114420666588053 57.6536967542699 0 0 0
331 111 1 0.7 37.441332129501426 86.46910053047775 56.1726157395973 0 0 0
332 111 2 -0.35 36.60248036271116 86.76185859240665 56.918417610423916 0 0 0
333 111 2 -0.35 38.28018389629169 86.17634246854884 55.42681386877068 0 0 0
334 112 1 0.7 83.15273541172628 28.02406488360095 30.45849868117762 0 0 0
335 112 2 -0.35 82.2775051522094 27.30924443923662 30.720421809489682 0 0 0
336 112 2 -0.35 84.02796567124317 28.73888532796528 30.196575552865557 0 0 0
337 113 1 0.7 85.9873345522151 59.13181907922581 48.48326454799774 0 0 0
338 113 2 -0.35 84.99518338126961 59.708580993681004 48.65232592154434 0 0 0
339 113 2 -0.35 86.9794857231606 58.55505716477061 48.314203174451144 0 0 0
340 114 1 0.7 88.22725819806907 85.52853494674365 88.08684992049209 0 0 0
341 114 2 -0.35 87.14460062874855 85.2661656707435 87.76340757539155 0 0 0
342 114 2 -0.35 89.30991576738958 85.79090422274379 88.41029226559262 0 0 0
343 115 1 0.7 65.68661371045123 54.91663155374892 33.826523858041746 0 0 0
344 115 2 -0.35 66.60023859147036 55.05097799967493 33.124497783561736 0 0 0
345 115 2 -0.35 64.7729888294321 54.782285107822915 34.528549932521756 0 0 0
346 116 1 0.7 82.38648210763301 19.604782988133273 7.587681555928515 0 0 0
347 116 2 -0.35 82.61556137014148 18.529750642364753 7.21696853074594 0 0 0
348 116 2 -0.35 82.15740284512455 20.679815333901793 7.958394581111089 0 0 0
349 117 1 0.7 86.16391049053702 56.84361445570532 20.628157039465457 0 0 0
350 117 2 -0.35 86.35443445267988 56.731932290609244 19.48937360357923 0 0 0
351 117 2 -0.35 85.97338652839416 56.9552966208014 21.76694047535168 0 0 0
352 118 1 0.7 17.435362295916008 86.13410746033028 5.944085771191905 0 0 0
353 118 2 -0.35 16.2807704590147 86.20689985958771 6.029050215350725 0 0 0
354 118 2 -0.35 18.589954132817315 86.06131506107286 5.859121327033086 0 0 0
355 119 1 0.7 2.2495564223497904 8.294790432925705 0.5428061823094292 0 0 0
356 119 2 -0.35 3.2466521461369098 8.721406730023615 0.9543868580656015 0 0 0
357 119 2 -0.35 1.252460698562671 7.868174135827795 0.13122550655325693 0 0 0
358 120 1 0.7 32.943506074577336 1.506595421352701 31.349246674845578 0 0 0
359 120 2 -0.35 32.29145268887306 0.6221735110812406 31.721031917725615 0 0 0
360 120 2 -0.35 33.59555946028161 2.3910173316241616 30.97746143196554 0 0 0
361 121 1 0.7 26.788864129590273 60.4394260237177 65.43318062342385 0 0 0
362 121 2 -0.35 25.74352470601842 59.95864274730821 65.58053370500487 0 0 0
363 121 2 -0.35 27.834203553162126 60.92020930012719 65.28582754184283 0 0 0
364 122 1 0.7 25.466737884779803 69.46362949417141 85.22090853900691 0 0 0
365 122 2 -0.35 24.513594580752255 68.87338728316666 84.92302941195086 0 0 0
366 122 2 -0.35 26.419881188807352 70.05387170517616 85.51878766606296 0 0 0
367 123 1 0.7 47.809815089129756 19.562203003821057 11.94588522051735 0 0 0
368 123 2 -0.35 47.800823213453945 20.096584551390595 10.916343813973146 0 0 0
369 123 2 -0.35 47.81880696480557 19.02782145625152 12.975426627061555 0 0 0
370 124 1 0.7 74.49290123511707 12.191058612517574 55.12210058286884 0 0 0
371 124 2 -0.35 73.34082370714111 12.288198518395978 55.21634074531954 0 0 0
372 124 2 -0.35 75.64497876309304 12.09391870663917 55.027860420418136 0 0 0
373 125 1 0.7 67.1444962765763 77.54892041792577 74.70546407844195 0 0 0
374 125 2 -0.35 66.26552677973808 77.92861291485589 74.05060055723854 0 0 0
375 125 2 -0.35 68.02346577341453 77.16922792099565 75.36032759964536 0 0 0
376 126 1 0.7 74.73476637375298 27.21844366622085 80.38269817381291 0 0 0
377 126 2 -0.35 74.09063373681194 26.322887627297145 80.74140770417789 0 0 0
378 126 2 -0.35 75.37889901069401 28.113999705144554 80.02398864344794 0 0 0
379 127 1 0.7 2.0082072736733627 1.93964862820676 19.67449427101505 0 0 0
380 127 2 -0.35 1.6577451433422183 2.889432409562998 20.240786654750167 0 0 0
381 127 2 -0.35 2.358669404004507 0.9898648468505221 19.108201887279932 0 0 0
382 128 1 0.7 9.225212949898658 68.15404894675783 35.100648158742416 0 0 0
383 128 2 -0.35 8.316774156282237 67.63003355779354 34.604919573343764 0 0 0
384 128 2 -0.35 10.13365174351508 68.67806433572211 35.59637674414107 0 0 0
385 129 1 0.7 76.59360398379788 38.702155690967174 37.130698085357764 0 0 0
386 129 2 -0.35 75.53310002384103 39.1669622741406 37.20059938115745 0 0 0
387 129 2 -0.35 77.65410794375472 38.23734910779375 37.060796789558076 0 0 0
388 130 1 0.7 85.64272060787432 27.205256543683475 38.74672968813532 0 0 0
389 130 2 -0.35 84.5728812803836 26.979061068753143 38.359587052308136 0 0 0
390 130 2 -0.35 86.71255993536505 27.431452018613808 39.1338723239625 0 0 0
391 131 1 0.7 66.28586849024792 46.5917155968918 66.96403696060368 0 0 0
392 131 2 -0.35 65.55584086503033 45.80236129775673 67.39944419166002 0 0 0
393 131 2 -0.35 67.01589611546551 47.38106989602687 66.52862972954733 0 0 0
394 132 1 0.7 14.569196866158952 64.49172953352878 42.49827001825826 0 0 0
395 132 2 -0.35 14.273691827348149 65.19336718115846 43.37347364226019 0 0 0