LAMMPS data file via write_data, version 29 Aug 2024, timestep = 8000000, units = real

1500 atoms
2 atom types
1000 bonds
1 bond types
500 angles
1 angle types

0 90 xlo xhi
0 90 ylo yhi
0 90 zlo zhi

Masses

1 12.0107
2 15.9994

PairIJ Coeffs # lj/cut/coul/long/gpu

1 1 0.053649 2.8 12
1 2 0.0917684 2.925 12
2 2 0.156973 3.05 12

Bond Coeffs # harmonic

1 0 1.16

Angle Coeffs # harmonic

1 0 180

Atoms # full

377 126 2 -0.35 8.73004143231076 8.748300318834303 10.469568319405047 -5 1 -3
376 126 1 0.7 8.461845544077189 7.665292978974385 10.787005033321991 -5 1 -3
249 83 2 -0.35 15.766748039512134 20.063076623650566 2.6700781480085434 1 10 3
248 83 2 -0.35 15.305864295844168 21.080169064902417 0.6364830209543608 1 10 3
378 126 2 -0.35 8.193649655843618 6.582285639114467 11.104441747238935 -5 1 -3
247 83 1 0.7 15.53630616767815 20.571622844276494 1.653280584481452 1 10 3
626 209 2 -0.35 12.708228287279448 6.4970220277852615 6.8493362624456555 -3 -6 1
625 209 1 0.7 12.44260738580236 6.516174197785309 7.978352972278125 -3 -6 1
627 209 2 -0.35 12.176986484325269 6.535326367785356 9.107369682110594 -3 -6 1
350 117 2 -0.35 13.273116577388286 13.374002578578224 9.507394108727848 5 -6 -2
351 117 2 -0.35 12.352313578711598 15.108025449814846 10.743390273630663 5 -6 -2
349 117 1 0.7 12.812715078049942 14.241014014196535 10.125392191179255 5 -6 -2
791 264 2 -0.35 9.178096336792303 12.879279962271474 7.286235240137897 10 -5 5
790 264 1 0.7 9.5367283399174 13.715819839996357 8.00539038286315 10 -5 5
792 264 2 -0.35 9.895360343042498 14.55235971772124 8.724545525588402 10 -5 5
419 140 2 -0.35 19.745560474885714 13.686949606737272 13.931332299404533 0 3 3
393 131 2 -0.35 6.336669447772914 2.5957369091990206 8.6307037847121 0 -2 4
391 131 1 0.7 6.082023861165055 3.6937790022210515 8.904673102653515 0 -2 4
392 131 2 -0.35 5.827378274557195 4.791821095243083 9.17864242059493 0 -2 4
420 140 2 -0.35 18.17236995464705 12.512637289546175 12.695022399453558 0 3 3
418 140 1 0.7 18.95896521476638 13.099793448141725 13.313177349429045 0 3 3
799 267 1 0.7 8.955499584649997 0.7994523617659243 5.477513944021202 -8 -6 -1
800 267 2 -0.35 9.817482247841793 1.27369220953226 4.862955195691601 -8 -6 -1
264 88 2 -0.35 89.41660434897642 13.714909933689967 1.984872179852805 1 -4 -5
262 88 1 0.7 0.10136079376381514 14.42089656274217 2.599926235136264 2 -4 -5
383 128 2 -0.35 5.6008476169190375 18.907923479065996 17.86719349002318 2 -2 -1
953 318 2 -0.35 14.310341624916386 18.781440566777427 13.921320729162552 -7 2 11
954 318 2 -0.35 14.314188151906286 20.176110529121473 15.775311263217494 -7 2 11
952 318 1 0.7 14.312264888411336 19.47877554794945 14.848315996190022 -7 2 11
382 128 1 0.7 6.522018280761805 19.200208361701833 18.50876511927094 2 -2 -1
384 128 2 -0.35 7.443188944604573 19.49249324433767 19.150336748518697 2 -2 -1
263 88 2 -0.35 0.7861172385512114 15.126883191794374 3.214980290419723 2 -4 -5
801 267 2 -0.35 8.093516921458201 0.3252125139995883 6.092072692350802 -8 -6 -1
26 9 2 -0.35 22.220035636282915 2.8214237473221844 0.8865785946333339 -5 -2 1
44 15 2 -0.35 29.43443020213233 19.871268188565153 12.05536851272508 1 14 4
43 15 1 0.7 29.471084433757373 19.780822137649803 10.899480983949093 1 14 4
45 15 2 -0.35 29.507738665382416 19.690376086734457 9.743593455173109 1 14 4
76 26 1 0.7 36.65200316838858 20.55203890332874 4.72026037056887 -5 -6 4
77 26 2 -0.35 35.894887291886626 20.795105915366392 5.564827701931937 -5 -6 4
78 26 2 -0.35 37.40911904489054 20.308971891291087 3.8756930392058044 -5 -6 4
810 270 2 -0.35 28.067095665887418 6.010984353553788 20.225818841607143 -3 6 -2
809 270 2 -0.35 27.222621611736177 8.053276349214485 20.931727459154068 -3 6 -2
808 270 1 0.7 27.644858638811797 7.0321303513841364 20.578773150380606 -3 6 -2
1161 387 2 -0.35 38.817014646868046 19.654625243400663 19.319615207148654 6 13 2
1280 427 2 -0.35 39.301380348573815 2.2119864396102757 11.320575379401005 0 6 1
1281 427 2 -0.35 40.94157320581861 1.4144142773318549 9.886683459834344 0 6 1
1279 427 1 0.7 40.121476777196214 1.8132003584710654 10.603629419617674 0 6 1
1159 387 1 0.7 38.336874081489114 19.44873503334283 18.283915318726372 6 13 2
1429 477 1 0.7 25.988395034954834 3.9900413522929012 4.5595156178261 -8 4 6
1431 477 2 -0.35 25.893614994607415 3.6866877677560783 3.443902178187713 -8 4 6
1160 387 2 -0.35 37.85673351611018 19.242844823285 17.24821543030409 6 13 2
1430 477 2 -0.35 26.083175075302254 4.293394936829724 5.675129057464487 -8 4 6
582 194 2 -0.35 25.883045887969853 22.363337917133144 8.922121757917594 -2 6 1
580 194 1 0.7 26.07817283666822 22.377824176718956 7.778742720950347 -2 6 1
1475 492 2 -0.35 27.536962820205726 6.400884886041529 2.7135676866112286 3 1 2
25 9 1 0.7 23.091789654350148 2.087004170205494 1.1016897675923938 -5 -2 1
27 9 2 -0.35 23.96354367241738 1.3525845930888036 1.3168009405514538 -5 -2 1
635 212 2 -0.35 42.02104763107079 21.871252770613644 13.19522384544026 -1 4 10
1474 492 1 0.7 27.421004551835896 6.338053830907784 1.561089513930756 3 1 2
101 34 2 -0.35 49.75607095465774 8.865851462674604 5.803906440849511 11 3 9
100 34 1 0.7 49.049334969594234 9.560679556786978 6.406681827747223 11 3 9
453 151 2 -0.35 57.43799941924985 15.516625119603733 6.784789889447807 -12 0 2
451 151 1 0.7 57.624779429622116 14.562398743404254 6.1522037287630535 -12 0 2
452 151 2 -0.35 57.81155943999438 13.608172367204775 5.519617568078299 -12 0 2
102 34 2 -0.35 48.34259898453073 10.255507650899354 7.009457214644934 11 3 9
52 18 1 0.7 53.99816913083151 11.56427535153268 18.521994177964366 -3 -6 0
54 18 2 -0.35 54.690423687521324 10.697866501847512 18.862169623772054 -3 -6 0
53 18 2 -0.35 53.3059145741417 12.430684201217849 18.181818732156678 -3 -6 0
236 79 2 -0.35 82.61713318767794 5.464312998740779 4.8691280656781695 -3 -8 2
237 79 2 -0.35 84.55193877017723 6.669662370475214 5.300475083724628 -3 -8 2
235 79 1 0.7 83.58453597892759 6.066987684607996 5.084801574701398 -3 -8 2
1082 361 2 -0.35 79.50606653874104 11.478995588977 8.891468985340646 0 2 1
1083 361 2 -0.35 80.90736748617526 10.602425582736316 10.519467965343011 0 2 1
1081 361 1 0.7 80.20671701245814 11.040710585856658 9.70546847534183 0 2 1
851 284 2 -0.35 89.32176841485585 4.900720198882449 20.054005420484252 -2 -3 -2
852 284 2 -0.35 89.47424073727721 2.5858093834029887 20.072447418217553 -2 -3 -2
850 284 1 0.7 89.39800457606653 3.743264791142719 20.0632264193509 -2 -3 -2
215 72 2 -0.35 70.35983069812407 22.757365999129103 20.868302039973496 -3 1 -2
214 72 1 0.7 70.14065270230826 21.826595673802096 21.52498126732906 -3 1 -2
638 213 2 -0.35 66.89312135539383 21.740146820842842 0.7802152949933208 -1 8 -3
637 213 1 0.7 67.97675304582947 21.647897021517444 0.37669040851594715 -1 8 -3
1124 375 2 -0.35 81.94663954978874 8.013226052474387 0.29229698120265624 -3 1 4
1019 340 2 -0.35 76.9340580708756 15.724007539225658 22.305004466166565 0 7 -2
878 293 2 -0.35 8.615306777221825 37.3599941403382 3.7841499137990913 -2 4 -2
877 293 1 0.7 7.592537686312833 37.04427200580775 3.3370896041630447 -2 4 -2
879 293 2 -0.35 6.5697685954038425 36.7285498712773 2.8900292945269985 -2 4 -2
320 107 2 -0.35 0.9830323046668649 30.2317357293464 3.226280728454155 5 -4 -2
573 191 2 -0.35 10.397760474301714 26.398095772899 6.894137011096271 -4 2 4
319 107 1 0.7 1.4992723215683483 30.381494122037015 4.25422463196668 5 -4 -2
571 191 1 0.7 9.441741915903087 25.74924262463321 6.791092807066195 -4 2 4
321 107 2 -0.35 2.015512338469832 30.53125251472763 5.2821685354792045 5 -4 -2
572 191 2 -0.35 8.485723357504458 25.100389476367422 6.688048603036119 -4 2 4
50 17 2 -0.35 12.139647507485492 33.096592982630845 11.937964323672093 3 0 6
49 17 1 0.7 11.641616626498015 33.51580931811751 12.89808041334225 3 0 6
51 17 2 -0.35 11.143585745510538 33.93502565360417 13.858196503012406 3 0 6
494 165 2 -0.35 6.610918549815442 40.49336027506327 8.442190842840073 -2 -5 3
493 165 1 0.7 6.336380358143633 41.19852055485011 7.562999304478657 -2 -5 3
1352 451 2 -0.35 19.213448475964025 36.07420726568521 0.8251585848791678 -2 -5 -1
495 165 2 -0.35 6.061842166471823 41.90368083463696 6.683807766117241 -2 -5 3
1351 451 1 0.7 18.729861489551492 36.65443347245845 1.7055455313658139 -2 -5 -1
1353 451 2 -0.35 18.24627450313896 37.23465967923168 2.5859324778524604 -2 -5 -1
669 223 2 -0.35 12.757561877941335 34.30461505651421 3.7229004200273117 3 -1 -10
7 3 1 0.7 21.135855037328223 29.34259681700727 13.47738608402158 -2 -5 11
668 223 2 -0.35 14.401819428628134 32.89499769183408 2.891157676025994 3 -1 -10
667 223 1 0.7 13.579690653284734 33.59980637417414 3.307029048026653 3 -1 -10
8 3 2 -0.35 21.112936870569786 29.29144070460368 12.318741267956227 -2 -5 11
252 84 2 -0.35 19.330843456191243 44.139284987828475 13.864581905954259 5 2 1
9 3 2 -0.35 21.15877320408666 29.39375292941086 14.636030900086933 -2 -5 11
250 84 1 0.7 19.17284696065827 44.49632084675399 14.956901686439991 5 2 1
581 194 2 -0.35 26.273299785366582 22.392310436304772 6.635363683983099 -2 6 1
636 212 2 -0.35 43.10526621941105 23.282629325120528 14.683473244592967 -1 4 10
1416 472 2 -0.35 23.922354547807778 25.968445326444563 13.478440266225512 -1 -1 6
1414 472 1 0.7 24.808767554218665 25.240214302188857 13.650345930407509 -1 -1 6
1415 472 2 -0.35 25.695180560629556 24.511983277933155 13.822251594589506 -1 -1 6
887 296 2 -0.35 44.27215324027757 26.696464414193564 7.407467307544635 -1 0 -2
888 296 2 -0.35 45.12247710456571 28.182961212647797 8.972611580133501 -1 0 -2
159 53 2 -0.35 43.57308763095849 32.64000448070872 6.760943460101657 3 -3 -2
157 53 1 0.7 42.5910515618506 32.66320265743227 6.143961285670622 3 -3 -2
158 53 2 -0.35 41.60901549274271 32.686400834155826 5.526979111239586 3 -3 -2
886 296 1 0.7 44.69731517242164 27.43971281342068 8.190039443839067 -1 0 -2
1359 453 2 -0.35 27.41715579705971 39.036522964095184 4.657825389289539 1 -3 10
1357 453 1 0.7 27.094612991542885 40.149147957365784 4.597561279232825 1 -3 10
1358 453 2 -0.35 26.772070186026063 41.26177295063638 4.53729716917611 1 -3 10
387 129 2 -0.35 43.57180839612082 42.079003854031704 5.33228293469622 2 -3 2
385 129 1 0.7 43.675528529738855 40.93708686962935 5.156590776033442 2 -3 2
1470 490 2 -0.35 26.55786234847602 31.32248147958666 0.31162908947803525 6 1 0
1468 490 1 0.7 25.6793004338102 31.78123729084145 0.9143496447413786 6 1 0
1469 490 2 -0.35 24.80073851914438 32.23999310209624 1.517070200004722 6 1 0
386 129 2 -0.35 43.77924866335689 39.79516988522699 4.980898617370664 2 -3 2
441 147 2 -0.35 38.94993761748409 35.997006822570086 3.4225031140869233 0 -1 -1
439 147 1 0.7 38.393827005524805 35.75279190971116 4.410784482726952 0 -1 -1
440 147 2 -0.35 37.83771639356552 35.50857699685225 5.399065851366982 0 -1 -1
634 212 1 0.7 42.563156925240925 22.576941047867088 13.939348545016614 -1 4 10
815 272 2 -0.35 26.82362935115031 42.48585155831767 21.591414443966173 0 5 3
569 190 2 -0.35 42.72769344425845 27.130320126719102 15.238099727996874 2 3 3
568 190 1 0.7 43.87639006024125 27.070689464320463 15.087965559568012 2 3 3
816 272 2 -0.35 26.31128937526214 43.28151965220128 19.473202926322994 0 5 3
814 272 1 0.7 26.567459363206225 42.88368560525947 20.53230868514458 0 5 3
381 127 2 -0.35 48.05347280592 34.2992341517749 9.733818618510682 -2 3 -2
540 180 2 -0.35 48.35208486813135 37.015819954119166 7.873359769120377 1 -4 4
380 127 2 -0.35 46.30453266884967 33.037694230852026 10.589461899828244 -2 3 -2
379 127 1 0.7 47.179002737384835 33.66846419131346 10.161640259169463 -2 3 -2
539 180 2 -0.35 46.32911192831643 36.81377617681805 6.7557020411776225 1 -4 4
538 180 1 0.7 47.34059839822389 36.91479806546861 7.314530905149 1 -4 4
1000 334 1 0.7 57.093928570058125 34.863997413021835 14.272069751590962 2 10 0
1001 334 2 -0.35 58.23652892489608 34.98380216371207 14.432417033572131 2 10 0
1002 334 2 -0.35 55.95132821522017 34.74419266233159 14.111722469609793 2 10 0
570 190 2 -0.35 45.02508667622405 27.01105880192182 14.937831391139152 2 3 3
774 258 2 -0.35 67.39704637850707 35.687630083006546 20.67803734462181 -2 1 3
772 258 1 0.7 66.79175473787747 36.635298341752346 20.962900296141733 -2 1 3
112 38 1 0.7 46.29996284547601 44.97034019639426 15.108404675241703 6 -4 1
114 38 2 -0.35 46.819926878460144 43.9337418148787 15.134884853502887 6 -4 1
1464 488 2 -0.35 65.06556677143361 32.21229706743471 18.392368088208507 -5 -1 2
1462 488 1 0.7 65.14171537613723 33.3538488493614 18.200897674871683 -5 -1 2
166 56 1 0.7 64.08195311935557 36.76321496915608 10.771186633647522 -3 4 1
167 56 2 -0.35 65.06363054844682 36.147837126550044 10.827927589249454 -3 4 1
1463 488 2 -0.35 65.21786398084085 34.49540063128809 18.009427261534864 -5 -1 2
168 56 2 -0.35 63.10027569026432 37.37859281176212 10.71444567804559 -3 4 1
773 258 2 -0.35 66.18646309724788 37.58296660049815 21.247763247661656 -2 1 3
948 316 2 -0.35 69.04159682055197 23.80517651448814 15.8994820529148 -5 -1 1
946 316 1 0.7 68.8690681949578 24.812003412809467 16.449148742978 -5 -1 1
947 316 2 -0.35 68.69653956936364 25.818830311130792 16.9988154330412 -5 -1 1
1071 357 2 -0.35 70.77958564647744 28.31537866273531 11.707690690388091 -5 -8 -4
1069 357 1 0.7 71.47301586367215 27.77174760791367 12.462157263614433 -5 -8 -4
1070 357 2 -0.35 72.16644608086686 27.228116553092036 13.216623836840773 -5 -8 -4
779 260 2 -0.35 86.7103408829826 27.32346755324161 14.445458993357112 4 3 5
778 260 1 0.7 87.13776566012831 28.137731355939458 15.1524826984038 4 3 5
780 260 2 -0.35 87.565190437274 28.951995158637303 15.859506403450487 4 3 5
146 49 2 -0.35 79.65652857865966 41.60207393318781 15.310898527644094 -4 1 0
145 49 1 0.7 79.10383778025661 42.59461433448841 15.545411710955271 -4 1 0
147 49 2 -0.35 78.55114698185356 43.587154735789014 15.779924894266449 -4 1 0
761 254 2 -0.35 71.87925923136604 43.89095123286639 20.04426265878011 -1 -11 3
115 39 1 0.7 20.369052143026476 55.31446798282953 6.416194038634651 -3 -3 2
116 39 2 -0.35 21.46620320932451 55.45910975067051 6.763955877711805 -3 -3 2
117 39 2 -0.35 19.27190107672844 55.16982621498855 6.068432199557497 -3 -3 2
1482 494 2 -0.35 2.229229820663023 51.17635395190214 5.178473245498925 -3 -1 2
1480 494 1 0.7 1.8581486299888064 52.27108385364382 5.2757624646241865 -3 -1 2
1481 494 2 -0.35 1.4870674393145897 53.3658137553855 5.373051683749449 -3 -1 2
1105 369 1 0.7 14.551837285600268 53.165316967544705 10.019841661258104 -4 -6 -4
1107 369 2 -0.35 15.416641223459305 52.86401511992822 9.30785054777084 -4 -6 -4
1106 369 2 -0.35 13.687033347741233 53.46661881516118 10.731832774745365 -4 -6 -4
1013 338 2 -0.35 4.334494478973917 57.95543793256227 10.868900125849272 -1 2 4
183 61 2 -0.35 16.190422413538244 46.69047463573678 13.805534150223679 -7 0 12
181 61 1 0.7 15.843467823552851 47.282880437667494 14.740562426976213 -7 0 12
182 61 2 -0.35 15.496513233567459 47.87528623959821 15.675590703728748 -7 0 12
962 321 2 -0.35 6.047250759739743 55.32302217694002 8.918554780480807 -1 -1 10
1012 338 1 0.7 4.213896342424907 57.587713644981996 11.962442506273366 -1 2 4
1014 338 2 -0.35 4.093298205875898 57.21998935740172 13.055984886697459 -1 2 4
963 321 2 -0.35 4.550243783971199 55.42444028434024 7.1490677129973745 -1 -1 10
961 321 1 0.7 5.298747271855471 55.37373123064013 8.033811246739091 -1 -1 10
251 84 2 -0.35 19.014850465125296 44.8533567056795 16.049221466925726 5 2 1
1085 362 2 -0.35 23.72062401796909 46.74467125667548 3.3630169538747925 -1 -1 -1
1084 362 1 0.7 24.208796508858512 46.75621500793047 2.310802925766792 -1 -1 -1
1086 362 2 -0.35 24.696968999747938 46.76775875918546 1.2585888976587913 -1 -1 -1
374 125 2 -0.35 24.61701798954528 62.91121471008938 15.927344483701846 7 2 0
373 125 1 0.7 24.33248450851236 63.8656143270604 15.332565474911384 7 2 0
375 125 2 -0.35 24.04795102747944 64.82001394403142 14.737786466120921 7 2 0
284 95 2 -0.35 33.00659966854621 60.957644253095154 5.071343990507067 3 2 -1
283 95 1 0.7 33.00636700066228 61.71753903374511 5.947791289667757 3 2 -1
285 95 2 -0.35 33.00613433277835 62.47743381439507 6.8242385888284485 3 2 -1
860 287 2 -0.35 43.13448789331679 50.143975723783676 1.7531730621227293 -1 5 -2
859 287 1 0.7 42.339588564481346 49.87790967465262 0.9513352265751127 -1 5 -2
861 287 2 -0.35 41.544689235645905 49.61184362552157 0.14949739102749615 -1 5 -2
192 64 2 -0.35 38.0166626465728 53.139564926392026 19.082620337616266 1 -3 2
190 64 1 0.7 39.16284518557392 53.06566184940996 18.920127499297813 1 -3 2
191 64 2 -0.35 40.30902772457504 52.9917587724279 18.757634660979356 1 -3 2
1421 474 2 -0.35 37.58922021761827 57.46183508065394 11.401521815304791 -2 0 2
1420 474 1 0.7 36.64665507106326 57.93265390662162 11.886805832777831 -2 0 2
217 73 1 0.7 27.64283245459223 60.12643500146884 15.086866540891814 -3 10 -1
219 73 2 -0.35 27.108914955726586 59.14343801201956 14.779866503210254 -3 10 -1
1422 474 2 -0.35 35.704089924508246 58.403472732589286 12.372089850250871 -2 0 2
218 73 2 -0.35 28.176749953457872 61.10943199091813 15.393866578573371 -3 10 -1
575 192 2 -0.35 41.04285715151277 57.83432621307003 12.428302297464052 0 -5 -3
1121 374 2 -0.35 34.50745796601243 49.72999682062461 1.9019810193280833 9 6 1
574 192 1 0.7 40.26254763070742 57.24883980483634 13.055934926886101 0 -5 -3
1120 374 1 0.7 35.12674524282414 50.5675263131403 2.41249802976458 9 6 1
1122 374 2 -0.35 35.74603251963585 51.40505580565599 2.9230150402010766 9 6 1
576 192 2 -0.35 39.48223810990206 56.663353396602645 13.683567556308148 0 -5 -3
199 67 1 0.7 37.59344101277548 58.546240808143224 21.63962079088718 4 -1 -2
201 67 2 -0.35 37.275315256906445 58.73302293597024 20.53984424986713 4 -1 -2
1053 351 2 -0.35 33.883616859211166 68.06766794571595 20.26586787829336 -3 9 1
1035 345 2 -0.35 42.14271735785024 66.98879863429809 0.6884499310669007 -1 2 0
113 38 2 -0.35 45.77999881249187 46.006938577909814 15.081924496980518 6 -4 1
920 307 2 -0.35 47.866277052344955 56.20389202686791 16.325838408856484 0 -6 -4
921 307 2 -0.35 46.24823681041984 55.38156198979095 14.880805853642787 0 -6 -4
919 307 1 0.7 47.0572569313824 55.792727008329436 15.603322131249636 0 -6 -4
1004 335 2 -0.35 47.7461004228851 67.78597873632731 20.15782588374526 4 -1 1
1003 335 1 0.7 48.17322004436858 67.95745850320557 21.22260920371784 4 -1 1
1005 335 2 -0.35 48.60033966585206 68.12893827008384 22.28739252369042 4 -1 1
132 44 2 -0.35 52.80021167170732 52.15358455133462 4.640129217493514 -6 -8 -3
130 44 1 0.7 51.87036049160184 52.30085624657745 3.9624214407662053 -6 -8 -3
131 44 2 -0.35 50.94050931149637 52.44812794182029 3.2847136640388968 -6 -8 -3
389 130 2 -0.35 48.07385492343087 65.72285809825259 15.823383680366922 7 -2 1
388 130 1 0.7 48.20055284649742 64.90373061234311 15.011855616700034 7 -2 1
1206 402 2 -0.35 53.44548183940647 54.83260159358161 13.844834101394436 -4 -4 8
390 130 2 -0.35 48.32725076956397 64.08460312643365 14.200327553033144 7 -2 1
1204 402 1 0.7 53.686105901932535 55.902372775233715 13.466297868730752 -4 -4 8
1205 402 2 -0.35 53.926729964458595 56.97214395688582 13.087761636067068 -4 -4 8
83 28 2 -0.35 52.08788073293001 63.5657369088958 3.2612183908730845 7 -1 2
82 28 1 0.7 52.33687971076508 62.45722700868759 3.0271130509627957 7 -1 2
84 28 2 -0.35 52.58587868860016 61.348717108479384 2.793007711052507 7 -1 2
608 203 2 -0.35 53.15028888643888 63.9386813704201 22.33265278270013 6 0 0
989 330 2 -0.35 80.91205017613952 47.419440122924456 13.762650152652743 -1 3 4
974 325 2 -0.35 79.16056245705859 49.169667331730736 18.73230479637756 -2 -1 -8
35 12 2 -0.35 87.7343913770413 64.09918613064924 2.887397852801055 -8 2 0
988 330 1 0.7 81.37766284322063 46.35732605213061 13.735844465229103 -1 3 4
973 325 1 0.7 78.34665295602805 48.343411192438495 18.753567825639138 -2 -1 -8
34 12 1 0.7 88.39739046521574 64.70352789172246 3.6227911114764084 -8 2 0
990 330 2 -0.35 81.84327551030175 45.29521198133676 13.709038777805462 -1 3 4
36 12 2 -0.35 89.06038955339015 65.30786965279569 4.358184370151762 -8 2 0
1314 438 2 -0.35 85.88242612366764 45.71218365819156 17.87405074114766 2 5 3
1312 438 1 0.7 85.60989983856821 45.78468598020538 18.999249762313582 2 5 3
1313 438 2 -0.35 85.3373735534688 45.8571883022192 20.1244487834795 2 5 3
996 332 2 -0.35 80.99007316429761 49.24204590210808 1.7286424164723773 -3 1 -1
994 332 1 0.7 80.3384669807845 49.15649691610334 2.68451414039897 -3 1 -1
995 332 2 -0.35 79.68686079727138 49.070947930098605 3.6403858643255624 -3 1 -1
760 254 1 0.7 72.12304854313071 45.02428480067634 20.002768134524743 -1 -11 3
510 170 2 -0.35 83.61756432296698 53.56302524020019 0.5747310208815276 2 3 4
508 170 1 0.7 84.47662097281561 53.66698735852113 1.347268107566341 2 3 4
509 170 2 -0.35 85.33567762266424 53.77094947684208 2.119805194251154 2 3 4
588 196 2 -0.35 82.80982028094976 48.01495390051152 18.78218287852708 4 -4 -1
586 196 1 0.7 81.94575192090946 47.43704714479779 18.267391997804918 4 -4 -1
587 196 2 -0.35 81.08168356086914 46.85914038908406 17.752601117082754 4 -4 -1
762 254 2 -0.35 72.3668378548954 46.15761836848629 19.961273610269377 -1 -11 3
734 245 2 -0.35 85.88511721136338 55.22057766452149 6.729391608709436 4 1 0
735 245 2 -0.35 84.80277358221409 56.15198857928787 8.55788989317727 4 1 0
733 245 1 0.7 85.34394539678873 55.68628312190468 7.643640750943353 4 1 0
975 325 2 -0.35 77.53274345499752 47.517155053146254 18.774830854900713 -2 -1 -8
1163 388 2 -0.35 71.15097401203509 67.38171071795546 13.171949194229535 -5 -5 4
1434 478 2 -0.35 15.386879399993862 85.641425110263 9.755179492713062 -2 -1 -1
1432 478 1 0.7 15.783503678936913 86.43709516441783 9.010063162014065 -2 -1 -1
1043 348 2 -0.35 19.247079098975135 84.25787896002385 1.7039355133706136 -6 10 -5
242 81 2 -0.35 19.26821148686275 75.60054198991526 1.6418628265499473 2 0 3
1042 348 1 0.7 18.2973097993558 83.59189226546317 1.7039225686516901 -6 10 -5
1433 478 2 -0.35 16.180127957879964 87.23276521857265 8.264946831315067 -2 -1 -1
241 81 1 0.7 20.20883745504033 75.34592873190958 1.0125815882810798 2 0 3
243 81 2 -0.35 21.14946342321791 75.09131547390389 0.38330035001221074 2 0 3
1044 348 2 -0.35 17.347540499736468 82.9259055709025 1.703909623932767 -6 10 -5
641 214 2 -0.35 13.385348295695662 78.00525277140531 12.386998991929342 0 -9 8
640 214 1 0.7 13.442281034487209 77.8947396997394 13.540318342433686 0 -9 8
642 214 2 -0.35 13.499213773278754 77.7842266280735 14.69363769293803 0 -9 8
119 40 2 -0.35 1.622619068565328 86.40594402301497 21.186178070575117 0 -1 -1
118 40 1 0.7 2.594280483251251 85.93623429101775 20.76091713552615 0 -1 -1
120 40 2 -0.35 3.5659418979371735 85.46652455902053 20.33565620047718 0 -1 -1
431 144 2 -0.35 3.836690711134871 85.14920923771284 9.612614082310115 7 3 -3
430 144 1 0.7 4.858619930826153 85.33476708456678 10.129168973305994 7 3 -3
432 144 2 -0.35 5.880549150517435 85.52032493142073 10.645723864301873 7 3 -3
95 32 2 -0.35 1.8350899640779226 85.49191059400823 3.217194339250123 -5 1 1
590 197 2 -0.35 14.743320154465756 72.62559113651126 21.020246206566465 -4 2 -3
589 197 1 0.7 14.266348005277507 73.43296873547915 21.703063152450962 -4 2 -3
94 32 1 0.7 2.0958473657166703 85.24432552459227 2.114331151499179 -5 1 1
96 32 2 -0.35 2.3566047673554182 84.99674045517631 1.0114679637482344 -5 1 1
1033 345 1 0.7 42.569437973575454 68.03227105719827 0.41518299424298816 -1 2 0
1034 345 2 -0.35 42.99615858930068 69.07574348009844 0.14191605741907548 -1 2 0
1052 351 2 -0.35 32.16103767098567 69.51863653209546 20.822474652985083 -3 9 1
1051 351 1 0.7 33.02232726509842 68.7931522389057 20.54417126563922 -3 9 1
66 22 2 -0.35 37.26365975898102 83.18155853860738 13.343371704988279 3 -1 -1
543 181 2 -0.35 24.15499402998302 72.43638917918527 20.503628998763382 8 -4 0
541 181 1 0.7 24.36083092655116 71.305310863508 20.349055340547267 8 -4 0
542 181 2 -0.35 24.5666678231193 70.17423254783073 20.19448168233115 8 -4 0
64 22 1 0.7 37.80973947425191 83.65807253490009 14.249093161015857 3 -1 -1
65 22 2 -0.35 38.355819189522805 84.13458653119281 15.154814617043435 3 -1 -1
1245 415 2 -0.35 29.240343994242878 74.59079724594942 1.0698798383105914 -1 -1 -9
1243 415 1 0.7 29.27488609794314 75.72963776389679 1.2877080223296329 -1 -1 -9
942 314 2 -0.35 29.554960409990073 76.58284555087114 19.298554002106734 6 0 3
940 314 1 0.7 30.200924980802004 76.01905497608716 18.517228230715208 6 0 3
521 174 2 -0.35 38.59347424700745 83.67100795679572 18.65848994592024 -7 1 0
561 187 2 -0.35 34.89938863979098 77.24186412558375 23.693390369629082 3 0 2
520 174 1 0.7 38.39334396966891 84.74550703823475 18.26990328109969 -7 1 0
522 174 2 -0.35 38.19321369233037 85.82000611967376 17.88131661627914 -7 1 0
941 314 2 -0.35 30.846889551613938 75.45526440130317 17.735902459323682 6 0 3
1244 415 2 -0.35 29.3094282016434 76.86847828184415 1.5055362063486744 -1 -1 -9
824 275 2 -0.35 31.130797651648205 78.04286493612882 21.83787678415321 4 -6 -8
671 224 2 -0.35 64.08699098545178 70.28752720618527 8.428526932688744 7 4 3
670 224 1 0.7 64.23760010120834 69.16685035582738 8.169682787837072 7 4 3
672 224 2 -0.35 64.3882092169649 68.04617350546948 7.910838642985402 7 4 3
748 250 1 0.7 55.07103096911643 74.48834232810226 2.1457419780119804 6 7 1
750 250 2 -0.35 56.04397031124287 75.11989821915324 2.1569755448144634 6 7 1
1008 336 2 -0.35 61.880137365058815 84.43657885248848 6.305149685806324 0 -8 -2
749 250 2 -0.35 54.098091626989984 73.85678643705128 2.1345084112094974 6 7 1
1006 336 1 0.7 61.93749244279525 83.7856483286893 7.2635858329981495 0 -8 -2
1007 336 2 -0.35 61.99484752053168 83.13471780489013 8.222021980189975 0 -8 -2
1406 469 2 -0.35 66.0718511752264 82.50937019344617 89.19669458580043 2 4 -7
1405 469 1 0.7 65.0026967421132 82.9370059042376 89.05656429995281 2 4 -7
1407 469 2 -0.35 63.93354230900002 83.36464161502903 88.91643401410519 2 4 -7
725 242 2 -0.35 50.236354445370424 83.45574305878155 0.37315451123467513 8 3 6
148 50 1 0.7 56.025339808272705 83.26773969896594 17.52782926429757 5 5 2
150 50 2 -0.35 55.8816238924402 84.17706125504392 18.23357712521391 5 5 2
1295 432 2 -0.35 46.84292109359831 76.15149820961985 11.12448240873073 -5 5 1
1296 432 2 -0.35 44.80689326388264 76.33426410279377 12.221563675050534 -5 5 1
1294 432 1 0.7 45.824907178740474 76.2428811562068 11.673023041890632 -5 5 1
149 50 2 -0.35 56.169055724105206 82.35841814288796 16.822081403381226 5 5 2
128 43 2 -0.35 49.455629465828956 87.37378766815688 20.612001074405384 -1 3 -3
127 43 1 0.7 48.57603057664455 86.745709553473 21.033217973401538 -1 3 -3
1268 423 2 -0.35 52.06860388319875 85.90655648820473 19.627556108746795 -3 8 2
129 43 2 -0.35 47.696431687460134 86.11763143878913 21.45443487239769 -1 3 -3
1267 423 1 0.7 52.2395409590051 86.92441517052173 19.09808069010462 -3 8 2
1269 423 2 -0.35 52.410478034811455 87.94227385283872 18.568605271462445 -3 8 2
1356 452 2 -0.35 63.22972686172631 72.83160720959866 0.8918578362958897 3 1 2
1364 455 2 -0.35 60.865189409420665 71.58127444779973 9.844949081838344 3 -1 7
1365 455 2 -0.35 61.32282390673273 72.82952108441894 7.9436729311856755 3 -1 7
1363 455 1 0.7 61.094006658076694 72.20539776610933 8.89431100651201 3 -1 7
1259 420 2 -0.35 61.24736101413313 75.73281426486874 12.653287732589424 3 2 -2
1258 420 1 0.7 60.66244272387005 75.99821024297951 11.687350069735718 3 2 -2
1260 420 2 -0.35 60.077524433606975 76.26360622109028 10.721412406882012 3 2 -2
1093 365 1 0.7 55.28367624114518 0.2985695220381359 2.363732391916444 0 2 -4
1094 365 2 -0.35 54.695208821634075 1.295060171355466 2.284281262310538 0 2 -4
1095 365 2 -0.35 55.872143660656285 89.30207887272081 2.443183521522349 0 1 -4
1354 452 1 0.7 63.322459167749145 73.79549404445869 0.25316942321537717 3 1 2
770 257 2 -0.35 68.941386839891 78.73628393965046 1.3512511134805005 -4 1 5
769 257 1 0.7 69.1573754371739 77.60231470593116 1.2369589316843135 -4 1 5
771 257 2 -0.35 69.37336403445681 76.46834547221187 1.1226667498881264 -4 1 5
63 21 2 -0.35 68.61670957571496 75.88699473699882 4.3976105715074985 6 8 -5
61 21 1 0.7 69.6372839619935 75.39432404688347 4.645206034254755 6 8 -5
62 21 2 -0.35 70.65785834827206 74.90165335676811 4.892801497002013 6 8 -5
86 29 2 -0.35 77.4653267629187 80.54464260798493 15.864172910986527 3 -3 -3
85 29 1 0.7 77.59284687637975 80.43948178100074 17.012336584480874 3 -3 -3
87 29 2 -0.35 77.7203669898408 80.33432095401655 18.16050025797522 3 -3 -3
971 324 2 -0.35 84.34532348132662 69.03234688350969 15.532120859468714 2 0 -2
1381 461 1 0.7 87.23394256751938 74.57739702098597 1.726655063007249 -2 4 -2
1383 461 2 -0.35 87.732560888053 75.33250624254242 1.0008521738236706 -2 4 -2
1074 358 2 -0.35 79.82447488101297 77.50028092321074 13.372906555583116 3 -5 -5
1382 461 2 -0.35 86.73532424698575 73.82228779942952 2.4524579521908274 -2 4 -2
930 310 2 -0.35 88.3657500695328 81.30234162087474 16.42104002817871 2 -3 -2
928 310 1 0.7 88.01819862632573 80.47546424074555 15.685457407016546 2 -3 -2
929 310 2 -0.35 87.67064718311865 79.64858686061636 14.949874785854382 2 -3 -2
972 324 2 -0.35 82.34703642420781 70.20782700852348 15.445545383433496 2 0 -2
970 324 1 0.7 83.34617995276722 69.62008694601658 15.488833121451105 2 0 -2
1072 358 1 0.7 80.4154153180345 76.55650412827286 13.047830008861391 3 -5 -5
1073 358 2 -0.35 81.00635575505603 75.612727333335 12.722753462139668 3 -5 -5
1247 416 2 -0.35 85.79200141282963 79.57119689998555 5.04234520634982 5 5 2
1246 416 1 0.7 85.19331364141689 80.30328898227215 4.370620459587478 5 5 2
1248 416 2 -0.35 84.59462587000415 81.03538106455875 3.698895712825135 5 5 2
444 148 2 -0.35 72.8014690976966 74.73003934860553 0.5300333243276241 -7 1 0
442 148 1 0.7 73.75654129985699 74.99025336089511 1.1347859650558678 -7 1 0
443 148 2 -0.35 74.7116135020174 75.25046737318469 1.7395386057841113 -7 1 0
1164 388 2 -0.35 69.42053329607263 67.47729561262511 14.714297551914733 -5 -5 4
1162 388 1 0.7 70.28575365405386 67.42950316529028 13.943123373072135 -5 -5 4
1010 337 2 -0.35 85.95100363273319 86.73619377019713 3.5693776451234887 9 -5 1
1009 337 1 0.7 85.4054295260416 86.67984837930581 4.5915195584768735 9 -5 1
1011 337 2 -0.35 84.85985541935003 86.6235029884145 5.613661471830257 9 -5 1