LAMMPS (29 Aug 2024 - Update 1)
  using 1 OpenMP thread(s) per MPI task
package gpu 1 gpuID 0
# GCMC for CO2 molecular fluid, rigid/small/nvt dynamics
# Rigid CO2 TraPPE model
# [Potoff and J.I. Siepmann, Vapor-liquid equilibria of
# mixtures containing alkanes, carbon dioxide and
# nitrogen AIChE J., 47,1676-1682 (2001)].

# global model settings

units           real
atom_style      full
boundary        p p p
pair_style      lj/cut/coul/long  12
pair_modify     mix arithmetic shift yes
kspace_style    pppm 1.0e-4
bond_style      harmonic
angle_style     harmonic
neigh_modify    one 4000

# box, start molecules on simple cubic lattice
region          mbox block 0 ${lbox} 0 ${lbox} 0 ${lbox} units box
region          mbox block 0 90 0 ${lbox} 0 ${lbox} units box
region          mbox block 0 90 0 90 0 ${lbox} units box
region          mbox block 0 90 0 90 0 90 units box
create_box      2 mbox                                       bond/types 1                                angle/types 1                               extra/bond/per/atom 2                       extra/angle/per/atom 1                      extra/special/per/atom 2
Created orthogonal box = (0 0 0) to (90 90 90)
  1 by 1 by 1 MPI processor grid
molecule        co2mol ../CO2.txt
Read molecule template co2mol:
# CO2 molecule file. TraPPE model.
  1 molecules
  0 fragments
  3 atoms with max type 2
  2 bonds with max type 1
  1 angles with max type 1
  0 dihedrals with max type 0
  0 impropers with max type 0
create_atoms   	0 random ${nmols} 34578 mbox mol co2mol 464563 overlap 1.2
create_atoms   	0 random 500 34578 mbox mol co2mol 464563 overlap 1.2
Created 1500 atoms
  using lattice units in orthogonal box = (0 0 0) to (90 90 90)
  create_atoms CPU = 0.014 seconds

# rigid CO2 TraPPE model

pair_coeff      1   1  0.053649   2.800
pair_coeff      2   2  0.156973   3.050
bond_coeff      1       0       1.16
angle_coeff     1       0       180

# masses

mass 1 12.0107
mass 2 15.9994

write_data init_conf.data  pair ij
System init for write_data ...
PPPM initialization ...
  using 12-bit tables for long-range coulomb (src/kspace.cpp:342)
  G vector (1/distance) = 0.18386167
  grid = 24 24 24
  stencil order = 5
  estimated absolute RMS force accuracy = 0.023168919
  estimated relative force accuracy = 6.977251e-05
  using double precision FFTW3
  3d grid and FFT values/proc = 24389 13824
Generated 1 of 1 mixed pair_coeff terms from arithmetic mixing rule

# MD settings

group           co2 type 1 2
1500 atoms in group co2
velocity       	all create 300 54654
timestep        0.25

# rigid constraints with thermostat
fix             myrigidnvt co2 rigid/nvt molecule temp 300 300 $(100*dt)
fix             myrigidnvt co2 rigid/nvt molecule temp 300 300 25
  500 rigid bodies with 1500 atoms

thermo 1000
thermo_style custom step temp density press ke pe etotal


variable    mvol equal vol
variable    mden equal density
variable	mtmp equal temp
variable    mpre equal press

fix mydat all ave/time 1 4000 4000 v_mtmp v_mden v_mpre file statistics.dat ## every 1ps

run 8000000 ## 1ns

CITE-CITE-CITE-CITE-CITE-CITE-CITE-CITE-CITE-CITE-CITE-CITE-CITE

Your simulation uses code contributions which should be cited:

- GPU package (short-range, long-range and three-body potentials): doi:10.1016/j.cpc.2010.12.021, doi:10.1016/j.cpc.2011.10.012, doi:10.1016/j.cpc.2013.08.002, doi:10.1016/j.commatsci.2014.10.068, doi:10.1016/j.cpc.2016.10.020, doi:10.3233/APC200086

@Article{Brown11,
 author = {W. M. Brown and P. Wang and S. J. Plimpton and A. N. Tharrington},
 title = {Implementing Molecular Dynamics on Hybrid High Performance Computers---Short Range Forces},
 journal = {Comput.\ Phys.\ Commun.},
 year =    2011,
 volume =  182,
 pages =   {898--911},
 doi =     {10.1016/j.cpc.2010.12.021}
}

@Article{Brown12,
 author = {W. M. Brown and A. Kohlmeyer and S. J. Plimpton and A. N. Tharrington},
 title = {Implementing Molecular Dynamics on Hybrid High Performance Computers - Particle-Particle Particle-Mesh},
 journal = {Comput.\ Phys.\ Commun.},
 year =    2012,
 volume =  183,
 doi =     {10.1016/j.cpc.2011.10.012},
 pages =   {449--459}
}

@Article{Brown13,
 author = {W. M. Brown and Y. Masako},
 title = {Implementing Molecular Dynamics on Hybrid High Performance Computers---Three-Body Potentials},
 journal = {Comput.\ Phys.\ Commun.},
 year =    2013,
 volume =  184,
 pages =   {2785--2793},
 doi =     {10.1016/j.cpc.2013.08.002},
}

@Article{Trung15,
 author = {T. D. Nguyen and S. J. Plimpton},
 title = {Accelerating Dissipative Particle Dynamics Simulations for Soft Matter Systems},
 journal = {Comput.\ Mater.\ Sci.},
 year =    2015,
 doi =     {10.1016/j.commatsci.2014.10.068},
 volume =  100,
 pages =   {173--180}
}

@Article{Trung17,
 author = {T. D. Nguyen},
 title = {{GPU}-Accelerated {T}ersoff Potentials for Massively Parallel
    Molecular Dynamics Simulations},
 journal = {Comput.\ Phys.\ Commun.},
 year =    2017,
 doi =     {10.1016/j.cpc.2016.10.020},
 volume =  212,
 pages =   {113--122}
}

@inproceedings{Nikolskiy19,
 author = {V. Nikolskiy and V. Stegailov},
 title = {{GPU} Acceleration of Four-Site Water Models in {LAMMPS}},
 booktitle = {Proceedings of the International Conference on Parallel
    Computing (ParCo 2019), Prague, Czech Republic},
 doi =     {10.3233/APC200086},
 year =    2019
}

CITE-CITE-CITE-CITE-CITE-CITE-CITE-CITE-CITE-CITE-CITE-CITE-CITE

PPPM initialization ...
  using 12-bit tables for long-range coulomb (src/kspace.cpp:342)
  G vector (1/distance) = 0.18386167
  grid = 24 24 24
  stencil order = 5
  estimated absolute RMS force accuracy = 0.023168919
  estimated relative force accuracy = 6.977251e-05
  using double precision FFTW3
  3d grid and FFT values/proc = 24389 13824
Generated 1 of 1 mixed pair_coeff terms from arithmetic mixing rule
Per MPI rank memory allocation (min/avg/max) = 9.636 | 9.636 | 9.636 Mbytes
   Step          Temp         Density         Press          KinEng         PotEng         TotEng    
         0   305.00001      0.050123105   -1190.8286      756.71342      13723.437      14480.15     
      1000   313.64127      0.050123105    10.615209      778.15262     -67.047209      711.10542    
      2000   303.84547      0.050123105    27.913666      753.84899     -85.790066      668.05893    
      3000   284.90336      0.050123105    30.947686      706.8531      -81.446557      625.40654    
      4000   311.34823      0.050123105    23.994293      772.46355     -105.62151      666.84203    
      5000   308.93335      0.050123105    28.919616      766.47216     -114.00373      652.46843    
      6000   305.89748      0.050123105    23.524668      758.94008     -120.42972      638.51036    
      7000   300.87118      0.050123105    24.687577      746.4697      -123.33379      623.13591    
      8000   297.61714      0.050123105    24.12158       738.39634     -126.87435      611.52199    
      9000   292.44363      0.050123105    24.708043      725.5607      -135.4501       590.1106     
     10000   307.47079      0.050123105    23.099703      762.84351     -145.0874       617.75611    
     11000   297.5743       0.050123105    25.11952       738.29003     -144.19785      594.09218    
     12000   291.07448      0.050123105   -5.7185066      722.16381     -146.2578       575.90601    
     13000   306.08556      0.050123105    37.970582      759.4067      -151.35992      608.04678    
     14000   303.85056      0.050123105    34.439082      753.86162     -147.79092      606.0707     
     15000   302.39404      0.050123105    51.598701      750.24794     -155.03376      595.21418    
     16000   297.17033      0.050123105    34.543803      737.28779     -162.82057      574.46722    
     17000   279.92145      0.050123105   -25.118167      694.49283     -166.33231      528.16052    
     18000   303.9082       0.050123105    32.264974      754.00462     -163.14206      590.86256    
     19000   312.04438      0.050123105    21.946417      774.19072     -166.23052      607.9602     
     20000   283.55482      0.050123105    40.618669      703.50732     -166.28047      537.22685    
     21000   291.56053      0.050123105    24.680383      723.3697      -170.64717      552.72254    
     22000   306.86582      0.050123105    27.984011      761.34257     -160.63294      600.70963    
     23000   303.00933      0.050123105    38.341516      751.7745      -182.33533      569.43917    
     24000   300.89846      0.050123105    9.2367958      746.53736     -186.49934      560.03803    
     25000   292.1391       0.050123105    19.470336      724.80515     -180.30115      544.504      
     26000   308.39236      0.050123105    43.399262      765.12994     -185.78554      579.3444     
     27000   305.72837      0.050123105    29.943157      758.52051     -182.77177      575.74874    
     28000   281.22456      0.050123105    13.594819      697.72588     -180.10731      517.61857    
     29000   306.56045      0.050123105    21.868503      760.58493     -186.19033      574.3946     
     30000   298.34296      0.050123105    24.93046       740.19711     -186.84598      553.35112    
     31000   279.60628      0.050123105    32.9647        693.71089     -191.87362      501.83727    
     32000   286.82025      0.050123105    19.258157      711.60894     -197.79639      513.81255    
     33000   303.26389      0.050123105    12.938351      752.40607     -196.66589      555.74018    
     34000   302.67201      0.050123105    8.5561359      750.93759     -203.95853      546.97906    
     35000   318.39184      0.050123105    14.079123      789.93892     -207.48334      582.45558    
     36000   297.33808      0.050123105    26.374402      737.70397     -208.12873      529.57524    
     37000   303.32292      0.050123105   -7.4891551      752.55251     -203.24762      549.30489    
     38000   302.65993      0.050123105    11.946044      750.90762     -206.2379       544.66972    
     39000   300.26371      0.050123105    41.280261      744.96254     -198.69256      546.26998    
     40000   298.12046      0.050123105    21.050089      739.64508     -194.20636      545.43872    
     41000   296.08261      0.050123105    7.0822101      734.58912     -198.43349      536.15563    
     42000   301.74985      0.050123105    48.628648      748.6497      -186.50516      562.14454    
     43000   305.0477       0.050123105    31.812094      756.83174     -187.82433      569.00741    
     44000   299.98418      0.050123105    3.2014855      744.26902     -201.43688      542.83214    
     45000   302.63655      0.050123105    26.857996      750.84963     -215.12824      535.72139    
     46000   299.13579      0.050123105    36.617288      742.16413     -211.34754      530.81659    
     47000   290.52565      0.050123105    17.190225      720.80215     -204.27567      516.52648    
     48000   312.65145      0.050123105    18.575271      775.69688     -196.71778      578.97909    
     49000   310.33391      0.050123105    28.884955      769.94697     -192.92         577.02697    
     50000   290.30561      0.050123105    18.180662      720.25623     -195.77272      524.4835     
     51000   288.08733      0.050123105    21.980539      714.75261     -192.36828      522.38433    
     52000   300.17017      0.050123105    18.531838      744.73047     -203.15013      541.58034    
     53000   310.83064      0.050123105    23.520266      771.17939     -202.08961      569.08977    
     54000   284.96765      0.050123105    14.930743      707.01259     -200.01015      507.00244    
     55000   298.33072      0.050123105    20.109076      740.16674     -192.51392      547.65282    
     56000   300.02279      0.050123105    25.659888      744.36482     -201.52312      542.8417     
     57000   304.46943      0.050123105    22.429587      755.39705     -192.88173      562.51531    
     58000   306.09377      0.050123105    19.933683      759.42708     -197.6643       561.76278    
     59000   313.5827       0.050123105    24.756763      778.00733     -199.08494      578.92239    
     60000   297.83225      0.050123105    27.023852      738.93003     -185.62363      553.3064     
     61000   296.83818      0.050123105    19.834867      736.4637      -191.01278      545.45091    
     62000   294.69953      0.050123105    12.628343      731.15765     -193.68797      537.46968    
     63000   299.0809       0.050123105    27.177504      742.02795     -191.27499      550.75296    
     64000   297.28264      0.050123105    28.345851      737.56642     -188.91051      548.65591    
     65000   294.79536      0.050123105    23.641831      731.39541     -192.29559      539.09982    
     66000   315.91989      0.050123105    29.67475       783.80596     -198.88694      584.91902    
     67000   295.58164      0.050123105    29.061031      733.3462      -195.79353      537.55268    
     68000   294.10527      0.050123105    20.60785       729.68328     -191.59746      538.08582    
     69000   316.49384      0.050123105    18.027324      785.22994     -187.3577       597.87224    
     70000   292.69625      0.050123105    26.728807      726.18746     -178.6616       547.52587    
     71000   287.35777      0.050123105    14.053831      712.94255     -186.13826      526.80429    
     72000   292.57638      0.050123105    20.611712      725.89006     -185.0654       540.82466    
     73000   308.55647      0.050123105    28.054835      765.53711     -182.55661      582.9805     
     74000   300.70807      0.050123105    26.299495      746.06502     -181.15919      564.90583    
     75000   289.4543       0.050123105    23.192572      718.14409     -173.10053      545.04356    
     76000   285.89382      0.050123105    25.576857      709.31046     -173.58335      535.72711    
     77000   306.97901      0.050123105    17.806678      761.6234      -184.40359      577.21981    
     78000   296.56498      0.050123105    43.424776      735.7859      -177.56854      558.21736    
     79000   290.30696      0.050123105    14.813063      720.25957     -181.1669       539.09267    
     80000   311.70389      0.050123105    3.0893809      773.34595     -177.20101      596.14494    
     81000   304.12141      0.050123105    30.757009      754.53361     -176.45929      578.07432    
     82000   302.80247      0.050123105    36.692846      751.26129     -166.22986      585.03143    
     83000   296.48485      0.050123105    20.839994      735.58708     -165.9691       569.61799    
     84000   310.37659      0.050123105    20.473795      770.05286     -163.08174      606.97112    
     85000   290.22063      0.050123105    22.761249      720.04538     -157.6191       562.42629    
     86000   293.06784      0.050123105    21.079396      727.10939     -158.85309      568.2563     
     87000   315.76272      0.050123105    27.113459      783.41601     -158.36261      625.05339    
     88000   309.86418      0.050123105    23.269903      768.78158     -170.61708      598.1645     
     89000   287.27699      0.050123105    15.881373      712.74212     -158.84081      553.90131    
     90000   290.34624      0.050123105    23.713056      720.35703     -158.62421      561.73282    
     91000   309.34528      0.050123105    23.137772      767.49417     -161.43358      606.06059    
     92000   310.27469      0.050123105    23.278274      769.80006     -168.99506      600.805      
     93000   285.56144      0.050123105    23.468649      708.48582     -162.31929      546.16652    
     94000   297.40697      0.050123105    24.356567      737.87488     -164.73004      573.14484    
     95000   309.25316      0.050123105    24.917651      767.26561     -163.66702      603.5986     
     96000   307.03767      0.050123105    9.3568798      761.76893     -162.20583      599.5631     
     97000   284.17144      0.050123105    15.604123      705.03718     -158.40151      546.63567    
     98000   300.61874      0.050123105    24.09362       745.84338     -166.91004      578.93334    
     99000   314.35898      0.050123105    27.635015      779.93329     -166.43893      613.49436    
    100000   295.15342      0.050123105    17.821793      732.28377     -161.81818      570.46559    
    101000   291.30097      0.050123105    21.711959      722.72574     -153.30459      569.42115    
    102000   299.06825      0.050123105    28.489405      741.99657     -154.74237      587.2542     
    103000   309.19366      0.050123105    26.356242      767.11799     -152.90555      614.21244    
    104000   304.22722      0.050123105    23.491238      754.79612     -155.46524      599.33088    
    105000   291.59556      0.050123105    21.545769      723.45663     -155.4158       568.04083    
    106000   297.46259      0.050123105    21.518217      738.01288     -148.40939      589.60349    
    107000   305.18153      0.050123105    24.780995      757.16378     -147.087        610.07678    
    108000   312.99213      0.050123105    29.888527      776.5421      -140.99956      635.54255    
    109000   294.14712      0.050123105    23.843442      729.78712     -139.36928      590.41784    
    110000   294.27825      0.050123105    16.804504      730.11245     -137.48727      592.62518    
    111000   304.36709      0.050123105    27.830861      755.14314     -128.78265      626.36049    
    112000   297.88266      0.050123105    15.749859      739.05509     -141.37387      597.68122    
    113000   292.61216      0.050123105    21.733164      725.97885     -142.2756       583.70325    
    114000   302.94963      0.050123105    30.886105      751.62638     -141.16079      610.46559    
    115000   308.59415      0.050123105    16.481824      765.63059     -146.03872      619.59187    
    116000   302.44995      0.050123105    22.774112      750.38666     -134.37353      616.01313    
    117000   291.1825       0.050123105    33.208018      722.4318      -132.10099      590.33081    
    118000   305.33543      0.050123105    18.766895      757.54561     -132.78612      624.75948    
    119000   301.83623      0.050123105    7.0972418      748.864       -131.36056      617.50344    
    120000   293.40699      0.050123105    47.385094      727.95084     -142.90496      585.04588    
    121000   306.89695      0.050123105    22.328306      761.41978     -137.4205       623.99929    
    122000   304.86259      0.050123105    20.726481      756.37249     -138.8549       617.51758    
    123000   299.74527      0.050123105    26.761181      743.67627     -147.06111      596.61515    
    124000   315.08203      0.050123105    25.87384       781.72721     -143.83436      637.89285    
    125000   299.34569      0.050123105   -2.7493038      742.68491     -134.04995      608.63496    
    126000   293.40451      0.050123105    31.08128       727.94467     -125.13646      602.80821    
    127000   298.67781      0.050123105    41.967855      741.02788     -123.54745      617.48044    
    128000   315.69145      0.050123105    46.680406      783.23918     -124.70351      658.53567    
    129000   300.7354       0.050123105   -8.1077056      746.13281     -122.37549      623.75732    
    130000   294.88804      0.050123105    5.8909975      731.62535     -127.81431      603.81104    
    131000   289.80609      0.050123105    7.8177496      719.01691     -128.26308      590.75383    
    132000   304.98054      0.050123105    43.458111      756.66512     -118.9497       637.71542    
    133000   298.81735      0.050123105    22.475353      741.37409     -114.08294      627.29115    
    134000   305.51408      0.050123105    28.637274      757.98886     -115.84079      642.14808    
    135000   305.05507      0.050123105    16.695697      756.85004     -118.39987      638.45017    
    136000   293.2367       0.050123105    23.47107       727.52833     -125.8542       601.67413    
    137000   303.53463      0.050123105    32.734838      753.0778      -123.88725      629.19054    
    138000   303.47349      0.050123105    23.787316      752.92609     -121.66418      631.26191    
    139000   294.07768      0.050123105    20.793793      729.61482     -105.22045      624.39438    
    140000   298.19971      0.050123105    25.853597      739.8417      -105.92226      633.91944    
    141000   299.03981      0.050123105    28.501399      741.92602     -105.22606      636.69996    
    142000   296.83747      0.050123105    19.827146      736.46195     -101.04626      635.41569    
    143000   303.59592      0.050123105    21.210722      753.22984     -106.73216      646.49767    
    144000   306.37405      0.050123105    26.607924      760.12247     -109.30419      650.81829    
    145000   300.43412      0.050123105    17.583984      745.38533     -109.23764      636.14769    
    146000   295.92469      0.050123105    22.76457       734.19731     -101.00792      633.18939    
    147000   304.52955      0.050123105    21.871444      755.5462      -105.22428      650.32192    
    148000   297.06836      0.050123105    15.571013      737.03479     -106.74987      630.28492    
    149000   291.62457      0.050123105    3.0403083      723.52859     -108.72316      614.80543    
    150000   292.407        0.050123105    25.358363      725.46983     -111.74         613.72983    
    151000   311.41962      0.050123105    22.853106      772.64065     -116.57913      656.06152    
    152000   305.95725      0.050123105    24.358254      759.08836     -111.43292      647.65544    
    153000   300.99942      0.050123105    21.510205      746.78785     -118.8556       627.93225    
    154000   300.79819      0.050123105    25.813179      746.2886      -116.86322      629.42538    
    155000   297.57168      0.050123105    25.884294      738.28354     -113.60227      624.68127    
    156000   293.05521      0.050123105    26.26118       727.07805     -116.07318      611.00486    
    157000   317.85268      0.050123105    25.972287      788.60127     -113.4336       675.16767    
    158000   305.64691      0.050123105    24.003449      758.3184      -107.64788      650.67052    
    159000   290.10655      0.050123105    26.514401      719.76235     -108.98021      610.78214    
    160000   299.86175      0.050123105    23.949711      743.96527     -105.87867      638.0866     
    161000   288.64169      0.050123105    21.348427      716.12799     -111.39982      604.72817    
    162000   310.89464      0.050123105    26.436876      771.33818     -106.34486      664.99332    
    163000   299.87298      0.050123105    23.178153      743.99313     -106.34782      637.64531    
    164000   287.30458      0.050123105    24.991657      712.81059     -104.72104      608.08955    
    165000   293.9696       0.050123105    36.397544      729.34668     -109.59351      619.75317    
    166000   310.09341      0.050123105    22.297663      769.35029     -111.99522      657.35507    
    167000   305.41529      0.050123105    22.84354       757.74375     -106.33118      651.41256    
    168000   282.60783      0.050123105    24.020312      701.15782     -106.89604      594.26178    
    169000   308.98762      0.050123105    23.980246      766.60681     -109.26239      657.34442    
    170000   307.4151       0.050123105    22.376911      762.70535     -109.5993       653.10604    
    171000   290.47933      0.050123105    19.348824      720.68723     -104.02123      616.666      
    172000   289.6676       0.050123105    19.158266      718.67329     -105.63985      613.03344    
    173000   300.54128      0.050123105    24.479769      745.6512      -103.9612       641.69       
    174000   289.93015      0.050123105    19.961579      719.32469     -105.56552      613.75917    
    175000   287.82437      0.050123105    16.632538      714.10019     -107.62419      606.476      
    176000   318.35066      0.050123105    24.380564      789.83676     -117.70884      672.12792    
    177000   292.14026      0.050123105    11.238046      724.80804     -120.53406      604.27398    
    178000   291.91386      0.050123105    30.730771      724.24633     -116.25757      607.98876    
    179000   316.1822       0.050123105    21.827678      784.45676     -113.4796       670.97716    
    180000   301.59929      0.050123105    18.918077      748.27616     -113.8655       634.41066    
    181000   295.5682       0.050123105    32.632692      733.31284     -111.35944      621.9534     
    182000   294.62839      0.050123105    18.385856      730.98115     -106.39434      624.5868     
    183000   300.32503      0.050123105    18.602602      745.11467     -112.3457       632.76897    
    184000   306.85566      0.050123105    30.055823      761.31736     -106.69865      654.61872    
    185000   304.90246      0.050123105    21.783521      756.47142     -107.70211      648.76931    
    186000   293.57619      0.050123105    20.903884      728.37062     -110.81559      617.55503    
    187000   290.10222      0.050123105    22.646067      719.75161     -109.52068      610.23092    
    188000   305.68523      0.050123105    25.471788      758.41349     -116.40681      642.00668    
    189000   312.68211      0.050123105    26.556754      775.77295     -108.43149      667.34146    
    190000   305.12999      0.050123105    23.483034      757.03591     -121.06095      635.97496    
    191000   299.49993      0.050123105    30.170862      743.06758     -108.78336      634.28422    
    192000   313.97224      0.050123105    22.596312      778.97378     -119.48353      659.49025    
    193000   289.74783      0.050123105    21.2414        718.87234     -103.80363      615.06871    
    194000   301.0386       0.050123105    23.0275        746.88506     -105.88441      641.00065    
    195000   294.71259      0.050123105    20.918935      731.19006     -103.17126      628.0188     
    196000   309.01936      0.050123105    22.813664      766.68556     -106.03274      660.65282    
    197000   300.88824      0.050123105    21.71819       746.51202     -108.8103       637.70173    
    198000   296.23624      0.050123105    26.619064      734.97029     -96.260339      638.70995    
    199000   305.91415      0.050123105    22.638007      758.98143     -109.33928      649.64215    
    200000   306.35284      0.050123105    26.037024      760.06983     -109.6459       650.42393    
    201000   295.23458      0.050123105    23.218204      732.48512     -104.62859      627.85653    
    202000   296.53806      0.050123105    24.67428       735.71911     -100.60038      635.11873    
    203000   315.6302       0.050123105    22.330237      783.08722     -108.17913      674.90809    
    204000   306.70106      0.050123105    23.583073      760.93379     -99.240399      661.6934     
    205000   289.60034      0.050123105    26.554337      718.50642     -105.49491      613.0115     
    206000   294.48396      0.050123105    21.571252      730.62282     -107.33783      623.28498    
    207000   305.84106      0.050123105    29.48171       758.80011     -100.80362      657.99649    
    208000   298.15393      0.050123105    22.930997      739.72811     -95.05296       644.67515    
    209000   286.73015      0.050123105    18.929795      711.38541     -103.61835      607.76706    
    210000   307.96302      0.050123105    31.462869      764.06474     -99.923925      664.14081    
    211000   294.86854      0.050123105    28.159898      731.57699     -103.38331      628.19368    
    212000   315.4953       0.050123105    27.090788      782.75253     -95.7059        687.04663    
    213000   292.46883      0.050123105    20.138417      725.62323     -92.806524      632.81671    
    214000   294.38784      0.050123105    21.856292      730.38436     -101.00606      629.3783     
    215000   293.11251      0.050123105    25.604744      727.22022     -101.87542      625.3448     
    216000   307.54916      0.050123105    29.508919      763.03794     -97.364962      665.67297    
    217000   313.00129      0.050123105    22.265286      776.56483     -94.86903       681.6958     
    218000   318.73665      0.050123105    18.226225      790.79442     -89.743909      701.05051    
    219000   293.63967      0.050123105    26.080844      728.5281      -89.007764      639.52034    
    220000   319.81515      0.050123105    21.892272      793.4702      -89.903196      703.567      
    221000   298.16695      0.050123105    19.592613      739.76041     -90.63489       649.12552    
    222000   297.00986      0.050123105    25.242396      736.88966     -87.491705      649.39796    
    223000   307.84726      0.050123105    26.772579      763.77754     -92.21884       671.5587     
    224000   302.14208      0.050123105    24.486671      749.62284     -88.768489      660.85435    
    225000   271.80967      0.050123105    24.717527      674.36728     -89.20387       585.16341    
    226000   299.45158      0.050123105    30.242264      742.94762     -87.332131      655.61549    
    227000   311.82545      0.050123105    27.562223      773.64753     -86.188175      687.45936    
    228000   303.34773      0.050123105    33.292128      752.61407     -84.619646      667.99442    
    229000   314.41705      0.050123105    22.590394      780.07736     -84.792485      695.28487    
    230000   314.9217       0.050123105    23.073529      781.32942     -81.541733      699.78768    
    231000   293.99477      0.050123105    25.098385      729.40912     -78.328991      651.08013    
    232000   296.86067      0.050123105    26.779986      736.51951     -79.476388      657.04312    
    233000   310.09324      0.050123105    21.850485      769.34988     -87.011229      682.33865    
    234000   292.27645      0.050123105    18.471002      725.14594     -86.692837      638.4531     
    235000   288.14236      0.050123105    27.485306      714.88913     -91.590591      623.29854    
    236000   306.59928      0.050123105    25.030672      760.68127     -95.141623      665.53965    
    237000   298.44849      0.050123105    27.909508      740.45893     -88.011201      652.44773    
    238000   293.74913      0.050123105    17.984369      728.79969     -91.283303      637.51639    
    239000   301.21075      0.050123105    28.913864      747.31217     -82.124696      665.18747    
    240000   305.03913      0.050123105    21.437888      756.81048     -89.340049      667.47043    
    241000   302.34802      0.050123105    17.653299      750.13376     -84.803377      665.33039    
    242000   308.60307      0.050123105    27.758266      765.65272     -94.265309      671.38741    
    243000   307.42187      0.050123105    28.417482      762.72214     -94.717993      668.00415    
    244000   297.62481      0.050123105    39.209592      738.41536     -94.162036      644.25333    
    245000   293.09504      0.050123105    21.680738      727.17687     -87.10412       640.07275    
    246000   318.38536      0.050123105    19.401394      789.92286     -81.760694      708.16216    
    247000   307.64907      0.050123105    37.228146      763.28583     -86.251986      677.03384    
    248000   279.83252      0.050123105    24.3646        694.27219     -92.085812      602.18638    
    249000   296.96585      0.050123105    15.966282      736.78045     -91.742261      645.03819    
    250000   291.23238      0.050123105    13.420968      722.55555     -90.065284      632.49027    
    251000   298.58902      0.050123105    22.684099      740.8076      -93.685689      647.12191    
    252000   308.47926      0.050123105    24.046616      765.34554     -91.157784      674.18776    
    253000   300.1921       0.050123105    23.889012      744.78488     -96.622413      648.16246    
    254000   295.99812      0.050123105    26.114886      734.3795      -103.70823      630.67126    
    255000   292.18746      0.050123105    25.757426      724.92515     -97.738132      627.18702    
    256000   287.57413      0.050123105    22.338322      713.47935     -97.88149       615.59786    
    257000   292.33318      0.050123105    22.976431      725.28667     -91.359931      633.92674    
    258000   302.06377      0.050123105    29.044585      749.42853     -91.986327      657.4422     
    259000   299.75369      0.050123105    28.362556      743.69716     -87.622062      656.0751     
    260000   290.75848      0.050123105    17.779346      721.3798      -81.813248      639.56655    
    261000   290.44644      0.050123105    18.337147      720.60562     -89.579752      631.02586    
    262000   300.33883      0.050123105    25.798903      745.14891     -94.119429      651.02948    
    263000   301.02028      0.050123105    23.15114       746.83962     -93.054619      653.785      
    264000   284.20243      0.050123105    22.592419      705.11407     -84.230874      620.8832     
    265000   304.51947      0.050123105    19.862595      755.5212      -84.693027      670.82817    
    266000   308.18555      0.050123105    27.418024      764.61684     -88.071136      676.54571    
    267000   308.44376      0.050123105    28.997116      765.25747     -76.940774      688.3167     
    268000   292.45114      0.050123105    23.183337      725.57934     -84.689315      640.89002    
    269000   315.41604      0.050123105    9.9793425      782.55589     -87.420066      695.13582    
    270000   306.37122      0.050123105    24.442096      760.11544     -86.482167      673.63328    
    271000   293.6237       0.050123105    31.687297      728.4885      -83.66638       644.82212    
    272000   290.71231      0.050123105    21.505742      721.26525     -82.932582      638.33267    
    273000   314.42485      0.050123105    16.71832       780.09673     -82.376919      697.71981    
    274000   301.14162      0.050123105    34.093939      747.14067     -84.198384      662.94228    
    275000   293.95141      0.050123105    15.547241      729.30156     -92.467929      636.83363    
    276000   300.39543      0.050123105    16.991159      745.28934     -84.740691      660.54865    
    277000   315.32922      0.050123105    26.269187      782.34049     -86.092383      696.24811    
    278000   293.50953      0.050123105    24.758183      728.20523     -82.996457      645.20877    
    279000   296.05508      0.050123105    23.1295        734.52081     -83.639584      650.88123    
    280000   310.39195      0.050123105    25.14003       770.09098     -85.619158      684.47182    
    281000   299.14975      0.050123105    25.059782      742.19878     -96.328838      645.86994    
    282000   292.53946      0.050123105    24.138812      725.79847     -95.728299      630.07017    
    283000   289.7914       0.050123105    26.43369       718.98045     -89.417691      629.56276    
    284000   306.54038      0.050123105    22.6918        760.53513     -88.710443      671.82469    
    285000   301.98134      0.050123105    25.766465      749.22404     -87.728404      661.49563    
    286000   296.9733       0.050123105    30.175657      736.79895     -77.663245      659.1357     
    287000   300.45217      0.050123105    24.710477      745.4301      -83.940033      661.49007    
    288000   297.21467      0.050123105    20.159014      737.3978      -90.98527       646.41253    
    289000   311.31205      0.050123105    19.663365      772.37378     -94.284633      678.08915    
    290000   310.56395      0.050123105    29.599333      770.51772     -86.156553      684.36117    
    291000   304.12111      0.050123105    26.349356      754.53285     -81.505408      673.02744    
    292000   295.54337      0.050123105    24.20941       733.25125     -85.970388      647.28086    
    293000   306.16946      0.050123105    30.639545      759.61487     -86.401312      673.21355    
    294000   308.28494      0.050123105    25.126146      764.86343     -91.795643      673.06779    
    295000   299.7782       0.050123105    21.964775      743.75797     -91.050728      652.70724    
    296000   285.05579      0.050123105    23.232824      707.23126     -98.10831       609.12295    
    297000   317.77855      0.050123105    40.122352      788.41735     -92.271121      696.14623    
    298000   301.92592      0.050123105    22.331349      749.08652     -90.457685      658.62884    
    299000   293.31359      0.050123105    21.663344      727.71909     -98.255727      629.46337    
    300000   297.95774      0.050123105    42.530092      739.24136     -94.536678      644.70468    
    301000   304.65633      0.050123105    31.67256       755.86074     -94.186249      661.67449    
    302000   306.75262      0.050123105    16.717995      761.0617      -87.47761       673.58409    
    303000   294.40343      0.050123105    15.33163       730.42302     -81.175522      649.2475     
    304000   298.89791      0.050123105    21.434062      741.57395     -84.875602      656.69835    
    305000   294.21406      0.050123105    29.754871      729.95321     -84.129865      645.82334    
    306000   311.77321      0.050123105    30.934209      773.51793     -92.493548      681.02438    
    307000   299.21753      0.050123105    21.357235      742.36694     -84.889499      657.47744    
    308000   293.14162      0.050123105    23.367629      727.29244     -81.639838      645.6526     
    309000   301.05828      0.050123105    34.847716      746.9339      -86.120426      660.81347    
    310000   307.34115      0.050123105    24.943007      762.52185     -89.027907      673.49395    
    311000   283.93191      0.050123105    6.5405115      704.4429      -81.641421      622.80147    
    312000   302.04006      0.050123105    32.722539      749.36972     -77.6433        671.72642    
    313000   310.36017      0.050123105    21.374585      770.01213     -85.558135      684.454      
    314000   298.65218      0.050123105    13.517381      740.96429     -91.499681      649.46461    
    315000   290.58844      0.050123105    15.673322      720.95792     -95.279251      625.67867    
    316000   300.47624      0.050123105    41.37144       745.48983     -95.076477      650.41335    
    317000   310.34382      0.050123105    22.279587      769.97157     -97.162193      672.80938    
    318000   285.52999      0.050123105    6.2361412      708.40777     -99.59524       608.81253    
    319000   292.42655      0.050123105    36.02721       725.51834     -95.635558      629.88278    
    320000   309.8889       0.050123105    26.141441      768.84291     -98.793946      670.04897    
    321000   298.93072      0.050123105    19.629485      741.65535     -88.111281      653.54407    
    322000   293.12565      0.050123105    43.831539      727.25282     -97.39583       629.85699    
    323000   321.52924      0.050123105    19.914075      797.72291     -98.914765      698.80815    
    324000   300.68711      0.050123105   -10.32093       746.01302     -92.99815       653.01487    
    325000   294.14209      0.050123105    8.9702449      729.77463     -85.598001      644.17663    
    326000   293.02038      0.050123105    24.36769       726.99163     -84.53095       642.46068    
    327000   311.04782      0.050123105    27.595202      771.71822     -85.114503      686.60371    
    328000   306.78706      0.050123105    11.685208      761.14715     -85.162579      675.98457    
    329000   289.89641      0.050123105    26.308365      719.24099     -91.468661      627.77233    
    330000   307.55623      0.050123105    26.348954      763.05548     -90.381695      672.67379    
    331000   311.41237      0.050123105    29.238516      772.62268     -90.878407      681.74427    
    332000   297.44576      0.050123105    25.171284      737.97113     -93.809857      644.16127    
    333000   294.10986      0.050123105    22.146695      729.69466     -89.08898       640.60568    
    334000   306.35185      0.050123105    23.365338      760.06739     -98.081386      661.986      
    335000   301.29869      0.050123105    21.27885       747.53035     -100.17535      647.35499    
    336000   292.18911      0.050123105    25.028285      724.92923     -97.718368      627.21086    
    337000   307.64117      0.050123105    20.791901      763.26623     -92.057246      671.20898    
    338000   303.62863      0.050123105    6.7593866      753.31099     -89.497334      663.81366    
    339000   304.05129      0.050123105    32.369818      754.35963     -84.246351      670.11328    
    340000   296.5751       0.050123105    23.753206      735.81101     -81.895954      653.91505    
    341000   299.47433      0.050123105    21.309737      743.00407     -79.348371      663.6557     
    342000   306.04458      0.050123105    43.563238      759.30505     -82.709364      676.59568    
    343000   288.01919      0.050123105    26.563276      714.58354     -88.110898      626.47264    
    344000   304.10183      0.050123105    21.082153      754.48501     -85.508177      668.97683    
    345000   306.33381      0.050123105    60.287162      760.02263     -84.065036      675.95759    
    346000   304.68995      0.050123105    23.991693      755.94417     -85.08153       670.86264    
    347000   296.38428      0.050123105    28.35037       735.33757     -87.777154      647.56041    
    348000   306.54494      0.050123105    6.0099423      760.54643     -93.931332      666.6151     
    349000   306.92264      0.050123105    27.538481      761.48352     -94.704083      666.77944    
    350000   302.18556      0.050123105    34.778692      749.7307      -93.866554      655.86415    
    351000   298.04403      0.050123105    10.587202      739.45546     -91.241189      648.21427    
    352000   302.74194      0.050123105    41.237408      751.1111      -88.067374      663.04372    
    353000   289.62578      0.050123105    22.696701      718.56954     -94.46316       624.10638    
    354000   303.31621      0.050123105    12.145705      752.53588     -86.826414      665.70946    
    355000   308.66402      0.050123105    48.49525       765.80394     -93.659417      672.14452    
    356000   296.75701      0.050123105    40.798665      736.26233     -85.282052      650.98027    
    357000   291.09325      0.050123105    3.2958824      722.21037     -86.460817      635.74955    
    358000   320.95942      0.050123105    38.759268      796.30916     -91.076976      705.23219    
    359000   295.48127      0.050123105    29.356288      733.09717     -89.567188      643.52999    
    360000   294.2209       0.050123105    26.452265      729.97016     -83.971035      645.99913    
    361000   303.05192      0.050123105    7.3485984      751.88016     -78.041738      673.83842    
    362000   327.59958      0.050123105    23.957749      812.78358     -74.696614      738.08697    
    363000   311.3805       0.050123105    31.864424      772.54361     -80.415117      692.12849    
    364000   281.11004      0.050123105    29.274877      697.44177     -77.02943       620.41234    
    365000   317.25954      0.050123105    16.925665      787.12966     -89.266612      697.86305    
    366000   307.75502      0.050123105    16.177975      763.54869     -83.64548       679.90321    
    367000   301.13567      0.050123105    25.765705      747.12589     -83.797786      663.3281     
    368000   311.22256      0.050123105    29.627506      772.15175     -88.132573      684.01917    
    369000   293.85463      0.050123105    27.637611      729.06144     -83.186831      645.87461    
    370000   283.25921      0.050123105    1.7676485      702.7739      -83.867759      618.90614    
    371000   302.85072      0.050123105    15.252258      751.38099     -85.042692      666.33829    
    372000   311.96855      0.050123105    22.142584      774.00256     -87.535725      686.46684    
    373000   311.08221      0.050123105    35.00808       771.80353     -77.28716       694.51637    
    374000   297.32768      0.050123105    23.564098      737.67818     -83.663406      654.01478    
    375000   295.96332      0.050123105    18.115423      734.29316     -85.583892      648.70927    
    376000   292.12023      0.050123105    14.820395      724.75835     -87.932218      636.82613    
    377000   314.99011      0.050123105    24.257795      781.49913     -86.769181      694.72995    
    378000   301.0365       0.050123105    31.214177      746.87986     -84.230942      662.64892    
    379000   287.56141      0.050123105    22.015264      713.44779     -81.63392       631.81387    
    380000   310.26695      0.050123105    26.87471       769.78084     -82.981501      686.79934    
    381000   307.814        0.050123105    23.080674      763.69503     -80.419473      683.27555    
    382000   298.16023      0.050123105    24.109939      739.74375     -76.044917      663.69884    
    383000   284.02407      0.050123105    23.821297      704.67155     -80.567022      624.10452    
    384000   306.84363      0.050123105    26.030902      761.28749     -78.10771       683.17978    
    385000   305.53844      0.050123105    29.019807      758.04928     -76.121683      681.9276     
    386000   296.55063      0.050123105    24.79174       735.75028     -77.311355      658.43893    
    387000   291.28904      0.050123105    26.55387       722.69613     -78.583515      644.11261    
    388000   299.84371      0.050123105    18.089317      743.92052     -74.657768      669.26275    
    389000   301.66054      0.050123105    27.311396      748.4281      -72.304718      676.12339    
    390000   295.30763      0.050123105    26.273905      732.66636     -77.570488      655.09587    
    391000   302.15542      0.050123105    22.231374      749.65594     -74.446428      675.20951    
    392000   307.50649      0.050123105    17.690545      762.93209     -73.421241      689.51085    
    393000   288.62188      0.050123105    28.115821      716.07883     -76.108554      639.97028    
    394000   297.70193      0.050123105    25.814265      738.60669     -71.190384      667.41631    
    395000   299.27075      0.050123105    27.484098      742.49898     -69.092501      673.40648    
    396000   313.17069      0.050123105    24.067688      776.98512     -78.090718      698.8944     
    397000   291.88762      0.050123105    23.240599      724.18123     -74.582749      649.59848    
    398000   293.1241       0.050123105    23.36677       727.24896     -78.166219      649.08274    
    399000   304.62374      0.050123105    21.547645      755.77988     -72.416921      683.36296    
    400000   310.96979      0.050123105    29.708102      771.52463     -81.334888      690.18974    
    401000   296.55747      0.050123105    21.244428      735.76727     -80.914853      654.85242    
    402000   296.98642      0.050123105    24.350012      736.83148     -85.743337      651.08815    
    403000   306.22057      0.050123105    24.753287      759.74168     -85.278442      674.46324    
    404000   302.11704      0.050123105    24.85522       749.56071     -89.783413      659.77729    
    405000   293.64385      0.050123105    24.925643      728.5385      -80.00786       648.53064    
    406000   292.92634      0.050123105    28.738678      726.75832     -79.815987      646.94233    
    407000   298.11475      0.050123105    21.624915      739.63092     -71.297224      668.3337     
    408000   306.34795      0.050123105    26.170672      760.05771     -76.850289      683.20743    
    409000   300.86957      0.050123105    33.689648      746.4657      -85.86411       660.60159    
    410000   311.72363      0.050123105    17.620509      773.39493     -86.299772      687.09516    
    411000   285.29156      0.050123105    17.251399      707.81622     -82.332224      625.484      
    412000   303.4559       0.050123105    24.239664      752.88245     -89.882876      662.99958    
    413000   304.371        0.050123105    25.131529      755.15285     -87.187608      667.96524    
    414000   292.67259      0.050123105    23.471723      726.12875     -93.609296      632.51946    
    415000   307.20505      0.050123105    26.670274      762.18419     -86.505465      675.67872    
    416000   323.07823      0.050123105    35.906148      801.56599     -87.877619      713.68837    
    417000   295.81399      0.050123105    22.829061      733.92267     -79.646994      654.27567    
    418000   295.65573      0.050123105    26.279059      733.53001     -86.36732       647.16269    
    419000   316.58777      0.050123105    28.812222      785.46299     -85.19944       700.26355    
    420000   300.84417      0.050123105    18.130322      746.40267     -84.071859      662.33081    
    421000   284.04984      0.050123105    19.899084      704.73548     -84.781762      619.95372    
    422000   288.35673      0.050123105    17.7842        715.42099     -79.213323      636.20766    
    423000   305.21219      0.050123105    28.791345      757.23986     -89.281985      667.95787    
    424000   312.80755      0.050123105    36.929987      776.08415     -85.044395      691.03976    
    425000   305.12299      0.050123105    24.344079      757.01854     -89.046857      667.97168    
    426000   299.51985      0.050123105    22.966765      743.117       -88.057676      655.05933    
    427000   282.79832      0.050123105    26.112651      701.63042     -87.85476       613.77566    
    428000   311.12506      0.050123105    28.675975      771.90986     -89.165918      682.74394    
    429000   308.32671      0.050123105    30.999378      764.96705     -86.983033      677.98402    
    430000   310.14326      0.050123105    18.783422      769.47399     -85.064841      684.40915    
    431000   294.1612       0.050123105    21.049666      729.82203     -82.368448      647.45359    
    432000   293.76045      0.050123105    32.868445      728.82777     -84.786571      644.0412     
    433000   309.69598      0.050123105    9.5590057      768.36426     -83.575135      684.78913    
    434000   301.00425      0.050123105    11.990845      746.79983     -79.940362      666.85947    
    435000   287.57222      0.050123105    17.406748      713.47459     -84.604338      628.87026    
    436000   295.0005       0.050123105    45.756262      731.90437     -92.759394      639.14497    
    437000   305.87623      0.050123105    29.944208      758.88735     -99.416784      659.47056    
    438000   319.508        0.050123105    24.492545      792.70817     -94.928779      697.77939    
    439000   283.05379      0.050123105    17.854451      702.26425     -91.401141      610.86311    
    440000   290.10219      0.050123105    21.729466      719.75154     -88.092544      631.65899    
    441000   300.3625       0.050123105    26.27015       745.20765     -89.495222      655.71243    
    442000   310.49787      0.050123105    29.883433      770.35378     -90.289376      680.06441    
    443000   303.01817      0.050123105    19.722914      751.79643     -80.449032      671.3474     
    444000   283.34209      0.050123105    24.819015      702.97953     -90.081332      612.89819    
    445000   314.86494      0.050123105    28.356869      781.18859     -92.709844      688.47874    
    446000   301.74102      0.050123105    1.7850894      748.62779     -94.127993      654.4998     
    447000   287.18081      0.050123105    17.175468      712.50351     -94.925652      617.57785    
    448000   292.30669      0.050123105    28.074653      725.22096     -99.80001       625.42095    
    449000   319.14451      0.050123105    35.970307      791.80632     -90.008311      701.79801    
    450000   311.88117      0.050123105    19.493857      773.78579     -90.721256      683.06453    
    451000   295.2892       0.050123105    22.1113        732.62066     -89.873063      642.74759    
    452000   297.16966      0.050123105    27.467091      737.28611     -88.405378      648.88073    
    453000   305.21068      0.050123105    37.249806      757.23612     -82.171765      675.06435    
    454000   307.54807      0.050123105    20.816325      763.03523     -88.732528      674.30271    
    455000   282.58591      0.050123105    18.133281      701.10343     -82.780258      618.32317    
    456000   291.38623      0.050123105    28.779168      722.93726     -89.568869      633.36839    
    457000   309.21624      0.050123105    26.885403      767.17401     -87.607695      679.56631    
    458000   304.37792      0.050123105    25.224655      755.17002     -89.623521      665.5465     
    459000   293.61233      0.050123105    17.959783      728.46028     -97.698613      630.76167    
    460000   305.33363      0.050123105    23.659962      757.54116     -88.654771      668.88639    
    461000   287.77794      0.050123105    29.533107      713.98499     -87.629616      626.35538    
    462000   299.27467      0.050123105    18.832581      742.5087      -86.63813       655.87057    
    463000   316.65813      0.050123105    31.334111      785.63755     -86.567084      699.07047    
    464000   295.80237      0.050123105    27.945045      733.89384     -90.376572      643.51727    
    465000   313.53797      0.050123105    24.876777      777.89634     -89.7443        688.15204    
    466000   291.99387      0.050123105    21.676591      724.44485     -89.473947      634.9709     
    467000   300.16782      0.050123105    20.976234      744.72464     -81.681333      663.04331    
    468000   314.16857      0.050123105    28.061992      779.46089     -84.9607        694.50019    
    469000   300.14657      0.050123105    31.03994       744.67192     -87.246853      657.42507    
    470000   300.43085      0.050123105    24.644058      745.37722     -86.137541      659.23968    
    471000   290.15378      0.050123105    19.587909      719.87954     -89.674062      630.20548    
    472000   301.67784      0.050123105    29.795219      748.47104     -84.916856      663.55418    
    473000   308.10701      0.050123105    18.997955      764.422       -86.177778      678.24422    
    474000   287.96447      0.050123105    20.382282      714.44779     -93.998775      620.44902    
    475000   304.39219      0.050123105    24.84969       755.20542     -93.853885      661.35154    
    476000   287.79978      0.050123105    23.641221      714.0392      -96.776732      617.26246    
    477000   296.06651      0.050123105    23.326355      734.54916     -90.787197      643.76197    
    478000   304.83316      0.050123105    23.716495      756.29947     -88.714447      667.58502    
    479000   288.16951      0.050123105    23.088903      714.9565      -83.141764      631.81473    
    480000   302.85002      0.050123105    16.586496      751.37925     -82.83608       668.54317    
    481000   296.11362      0.050123105    22.434909      734.66604     -89.240168      645.42587    
    482000   298.60982      0.050123105    24.623547      740.85919     -83.849093      657.0101     
    483000   303.89647      0.050123105    31.395042      753.97551     -82.928297      671.04721    
    484000   292.82043      0.050123105    28.990744      726.49557     -81.977199      644.51837    
    485000   290.18842      0.050123105    21.226554      719.96548     -77.818611      642.14687    
    486000   305.92517      0.050123105    27.183799      759.00879     -88.766163      670.24263    
    487000   299.35299      0.050123105    27.371398      742.70302     -86.879213      655.8238     
    488000   292.84156      0.050123105    27.490699      726.54797     -89.780689      636.76728    
    489000   302.3252       0.050123105    22.963624      750.07716     -87.132789      662.94437    
    490000   308.58997      0.050123105    23.56743       765.62021     -86.32765       679.29256    
    491000   291.57787      0.050123105    24.893705      723.41274     -77.492191      645.92055    
    492000   291.50202      0.050123105    17.295655      723.22456     -85.789553      637.435      
    493000   310.4096       0.050123105    27.546441      770.13478     -85.042612      685.09217    
    494000   294.24456      0.050123105    28.418265      730.02885     -89.901245      640.12761    
    495000   291.91252      0.050123105    21.921106      724.24302     -89.208115      635.0349     
    496000   295.03225      0.050123105    21.716041      731.98315     -87.649755      644.3334     
    497000   301.1886       0.050123105    28.893309      747.25721     -90.178067      657.07914    
    498000   300.46005      0.050123105    26.816731      745.44966     -88.658344      656.79132    
    499000   302.77099      0.050123105    23.366643      751.18317     -86.599528      664.58364    
    500000   304.22382      0.050123105    22.846549      754.78768     -82.645371      672.14231    
    501000   303.95697      0.050123105    35.095554      754.12562     -77.086089      677.03954    
    502000   283.97423      0.050123105    23.057634      704.5479      -79.990871      624.55702    
    503000   298.4818       0.050123105    22.895792      740.54157     -79.551071      660.9905     
    504000   310.26693      0.050123105    28.122225      769.78081     -73.11814       696.66267    
    505000   315.85827      0.050123105    24.677838      783.65309     -78.030008      705.62308    
    506000   287.8048       0.050123105    22.504821      714.05164     -82.276203      631.77544    
    507000   295.72013      0.050123105    26.312578      733.68979     -86.143801      647.54599    
    508000   310.78411      0.050123105    26.58013       771.06395     -101.14077      669.92318    
    509000   313.79705      0.050123105    25.412248      778.53913     -94.679754      683.85937    
    510000   287.94319      0.050123105    14.839816      714.39499     -93.011465      621.38352    
    511000   294.18827      0.050123105    29.582449      729.88921     -89.44429       640.44492    
    512000   310.68215      0.050123105    30.385879      770.81098     -79.981564      690.82942    
    513000   307.63472      0.050123105    17.807792      763.25021     -79.869064      683.38115    
    514000   301.69776      0.050123105    11.376158      748.52046     -77.750101      670.77036    
    515000   286.76573      0.050123105    11.958477      711.47369     -84.115368      627.35833    
    516000   296.19913      0.050123105    31.801677      734.8782      -79.860146      655.01806    
    517000   300.81703      0.050123105    30.751705      746.33534     -83.858105      662.47724    
    518000   318.2781       0.050123105    26.440148      789.65675     -81.366765      708.28998    
    519000   293.06884      0.050123105    22.107138      727.11187     -89.696153      637.41572    
    520000   293.36596      0.050123105    23.457481      727.84904     -82.426232      645.42281    
    521000   294.26829      0.050123105    22.351347      730.08773     -81.254808      648.83292    
    522000   308.30158      0.050123105    20.873839      764.90472     -80.745383      684.15933    
    523000   296.97347      0.050123105    30.115887      736.79936     -79.171961      657.62739    
    524000   294.74008      0.050123105    19.101334      731.25827     -80.506733      650.75154    
    525000   304.14278      0.050123105    23.727807      754.58663     -87.599981      666.98665    
    526000   298.03087      0.050123105    34.286499      739.4228      -88.259709      651.16309    
    527000   294.2588       0.050123105    24.812955      730.0642      -86.087925      643.97627    
    528000   319.36788      0.050123105    28.274695      792.36051     -83.743286      708.61723    
    529000   308.9131       0.050123105    24.90011       766.42192     -79.331319      687.0906     
    530000   291.40214      0.050123105    24.078553      722.97675     -87.484054      635.4927     
    531000   305.90851      0.050123105    30.752174      758.96745     -77.098068      681.86938    
    532000   299.81048      0.050123105    27.076707      743.83806     -80.779623      663.05844    
    533000   290.3071       0.050123105    25.974992      720.25991     -82.203809      638.0561     
    534000   312.66018      0.050123105    15.957634      775.71852     -83.123204      692.59532    
    535000   306.66991      0.050123105    31.28747       760.85649     -89.593334      671.26316    
    536000   283.58109      0.050123105    24.973128      703.57251     -82.397562      621.17495    
    537000   289.15011      0.050123105    25.738399      717.3894      -89.292505      628.0969     
    538000   305.54613      0.050123105    23.635796      758.06837     -90.674279      667.39409    
    539000   302.12686      0.050123105    28.497308      749.58506     -81.807402      667.77766    
    540000   286.23771      0.050123105    25.65748       710.16364     -91.917155      618.24648    
    541000   313.02178      0.050123105    25.599023      776.61565     -89.744442      686.87121    
    542000   301.03842      0.050123105    13.665203      746.88463     -88.478234      658.40639    
    543000   295.18043      0.050123105    22.582808      732.35078     -92.822216      639.52857    
    544000   297.52208      0.050123105    28.941765      738.16048     -92.161797      645.99869    
    545000   316.58571      0.050123105    27.408605      785.45786     -88.453939      697.00392    
    546000   293.8576       0.050123105    24.729749      729.0688      -90.137904      638.93089    
    547000   302.57404      0.050123105    21.976943      750.69453     -91.356489      659.33804    
    548000   283.71979      0.050123105    19.857804      703.91661     -96.228887      607.68772    
    549000   290.79868      0.050123105    25.532895      721.47955     -95.399295      626.08025    
    550000   304.94915      0.050123105    30.414871      756.58726     -92.206452      664.38081    
    551000   294.72069      0.050123105    19.446665      731.21017     -88.519481      642.69069    
    552000   296.216        0.050123105    22.644258      734.92007     -85.194201      649.72586    
    553000   300.30541      0.050123105    27.030737      745.066       -79.911423      665.15458    
    554000   299.41748      0.050123105    24.842877      742.86302     -82.478835      660.38419    
    555000   305.44418      0.050123105    16.432861      757.81543     -84.006511      673.80892    
    556000   288.23679      0.050123105    24.535354      715.12342     -87.076009      628.04741    
    557000   307.27373      0.050123105    24.067722      762.35459     -91.539999      670.81459    
    558000   298.66368      0.050123105    17.567247      740.99281     -91.77067       649.22214    
    559000   283.61827      0.050123105    21.4058        703.66476     -88.992029      614.67273    
    560000   291.84342      0.050123105    23.910182      724.07157     -89.098829      634.97274    
    561000   310.2304       0.050123105    26.982731      769.69017     -92.712858      676.97732    
    562000   308.47549      0.050123105    11.477533      765.33618     -88.058117      677.27807    
    563000   311.53429      0.050123105    21.845674      772.92516     -84.224408      688.70076    
    564000   292.61829      0.050123105    25.550001      725.99404     -83.675583      642.31846    
    565000   301.64335      0.050123105    24.903443      748.38547     -84.813252      663.57222    
    566000   301.57592      0.050123105    24.320441      748.21818     -83.262416      664.95577    
    567000   291.85062      0.050123105    25.54922       724.08943     -86.942356      637.14707    
    568000   293.26523      0.050123105    24.408931      727.59911     -81.966324      645.63279    
    569000   305.81201      0.050123105    20.407295      758.72803     -71.26654       687.46149    
    570000   299.78834      0.050123105    19.636119      743.78314     -73.404276      670.37886    
    571000   299.51306      0.050123105    24.180541      743.10017     -78.653361      664.44681    
    572000   315.98219      0.050123105    28.090494      783.96053     -77.772586      706.18795    
    573000   303.30656      0.050123105    28.648203      752.51192     -77.811722      674.7002     
    574000   286.84241      0.050123105    25.956781      711.66394     -78.225689      633.43825    
    575000   287.84843      0.050123105    25.376273      714.15989     -83.601772      630.55812    
    576000   294.38678      0.050123105    19.699423      730.38171     -87.273932      643.10778    
    577000   305.27081      0.050123105    28.41396       757.3853      -84.938141      672.44716    
    578000   301.27383      0.050123105    23.29466       747.46867     -91.753456      655.71521    
    579000   295.73522      0.050123105    28.977979      733.72724     -87.832901      645.89434    
    580000   296.09821      0.050123105    23.570754      734.62782     -92.200358      642.42746    
    581000   324.30144      0.050123105    28.370517      804.60082     -88.418117      716.1827     
    582000   300.10562      0.050123105    20.713556      744.57032     -87.270401      657.29992    
    583000   281.69148      0.050123105    22.54252       698.88432     -88.418997      610.46532    
    584000   291.10068      0.050123105    16.451949      722.22882     -85.141209      637.08761    
    585000   322.10693      0.050123105    30.774215      799.15616     -88.916844      710.23932    
    586000   306.95327      0.050123105    29.767828      761.55952     -83.281799      678.27773    
    587000   283.29949      0.050123105    28.464723      702.87385     -85.06349       617.81036    
    588000   296.15115      0.050123105    21.872168      734.75917     -83.164076      651.59509    
    589000   312.74199      0.050123105    24.388228      775.92151     -77.308168      698.61334    
    590000   301.70924      0.050123105    25.433877      748.54895     -81.95814       666.59081    
    591000   288.98651      0.050123105    22.846593      716.98349     -86.429034      630.55446    
    592000   299.36835      0.050123105    22.358191      742.74113     -82.425594      660.31553    
    593000   310.41316      0.050123105    22.810073      770.14362     -82.080373      688.06324    
    594000   307.01515      0.050123105    39.526577      761.71305     -85.971068      675.74198    
    595000   291.03133      0.050123105    18.210303      722.05676     -87.073739      634.98302    
    596000   292.91148      0.050123105    14.045336      726.72145     -84.657008      642.06444    
    597000   316.22174      0.050123105    18.724188      784.55484     -89.760338      694.79451    
    598000   304.73876      0.050123105    35.014637      756.06526     -90.483744      665.58152    
    599000   289.03019      0.050123105    26.957031      717.09187     -82.301893      634.78998    
    600000   307.57196      0.050123105    25.717677      763.09452     -79.459656      683.63486    
    601000   299.57078      0.050123105    31.710714      743.24337     -76.665097      666.57827    
    602000   291.73951      0.050123105    26.877757      723.81377     -78.273669      645.5401     
    603000   291.41317      0.050123105    21.217769      723.0041      -70.442767      652.56133    
    604000   311.39355      0.050123105    21.825306      772.57599     -76.572863      696.00312    
    605000   301.1198       0.050123105    30.655071      747.08653     -80.914926      666.17161    
    606000   300.21837      0.050123105    11.630177      744.85005     -80.603579      664.24647    
    607000   302.90826      0.050123105    25.636061      751.52373     -79.808217      671.71552    
    608000   316.03264      0.050123105    33.091488      784.0857      -84.32237       699.76333    
    609000   306.37811      0.050123105    30.234484      760.13253     -83.408594      676.72394    
    610000   294.91378      0.050123105    16.660691      731.68921     -87.005847      644.68336    
    611000   294.64987      0.050123105    23.23025       731.03444     -87.501026      643.53342    
    612000   316.53469      0.050123105    26.334366      785.33129     -82.426125      702.90517    
    613000   298.72221      0.050123105    14.761045      741.13803     -86.457257      654.68077    
    614000   302.95298      0.050123105    23.796819      751.6347      -80.71937       670.91533    
    615000   302.40946      0.050123105    37.418602      750.28621     -85.3696        664.91661    
    616000   304.76456      0.050123105    21.273162      756.12928     -92.00739       664.12189    
    617000   307.49264      0.050123105    17.197223      762.89772     -84.694162      678.20356    
    618000   291.72981      0.050123105    37.036458      723.7897      -77.97487       645.81483    
    619000   306.18242      0.050123105    33.490709      759.64703     -85.545873      674.10115    
    620000   297.35299      0.050123105    14.636896      737.74097     -80.687699      657.05327    
    621000   294.84978      0.050123105    20.517184      731.53043     -82.320877      649.20956    
    622000   303.14228      0.050123105    26.892409      752.10436     -81.476475      670.62788    
    623000   308.85713      0.050123105    24.608441      766.28306     -90.744364      675.5387     
    624000   294.60479      0.050123105    25.069937      730.92259     -89.711046      641.21155    
    625000   284.51913      0.050123105    20.474113      705.89981     -98.714228      607.18558    
    626000   301.8205       0.050123105    22.403237      748.82499     -102.9551       645.86989    
    627000   302.12254      0.050123105    25.830348      749.57434     -98.089598      651.48474    
    628000   299.43212      0.050123105    18.815411      742.89934     -100.32971      642.56963    
    629000   299.63117      0.050123105    22.549211      743.39319     -88.347613      655.04558    
    630000   312.78501      0.050123105    21.722212      776.02824     -84.870441      691.1578     
    631000   292.28458      0.050123105    24.848516      725.16611     -83.80767       641.35844    
    632000   310.53347      0.050123105    55.373182      770.44211     -90.189564      680.25254    
    633000   306.2166       0.050123105    16.714839      759.73182     -85.838209      673.89361    
    634000   301.18105      0.050123105    6.3988268      747.2385      -80.813607      666.42489    
    635000   298.57059      0.050123105    19.234404      740.76185     -75.511956      665.2499     
    636000   298.7678       0.050123105    39.920879      741.25115     -79.817854      661.4333     
    637000   307.73896      0.050123105    15.488527      763.50885     -72.970842      690.53801    
    638000   300.90608      0.050123105    5.2532301      746.55628     -84.078864      662.47742    
    639000   289.48159      0.050123105    58.564052      718.21179     -81.913686      636.29811    
    640000   279.42454      0.050123105    70.27468       693.25998     -75.320065      617.93992    
    641000   313.48501      0.050123105    44.632138      777.76494     -80.430096      697.33484    
    642000   298.729        0.050123105    23.671878      741.15487     -82.903495      658.25138    
    643000   285.35547      0.050123105    17.849616      707.97479     -83.576963      624.39782    
    644000   300.6856       0.050123105    38.603485      746.00927     -90.939628      655.06964    
    645000   307.22895      0.050123105    44.272069      762.2435      -92.619604      669.62389    
    646000   291.83502      0.050123105    14.994376      724.05073     -82.298852      641.75188    
    647000   297.21436      0.050123105    15.808974      737.39701     -81.764654      655.63236    
    648000   290.69106      0.050123105    31.752198      721.21254     -79.810915      641.40163    
    649000   309.03524      0.050123105    27.152698      766.72496     -77.300504      689.42445    
    650000   302.02957      0.050123105    18.13219       749.3437      -79.260501      670.08319    
    651000   291.74415      0.050123105    46.507752      723.82527     -79.706821      644.11845    
    652000   294.08357      0.050123105    42.808479      729.62943     -80.341956      649.28748    
    653000   303.59065      0.050123105    21.480135      753.21678     -86.903822      666.31296    
    654000   302.57641      0.050123105   -0.26179401     750.70041     -83.578873      667.12154    
    655000   288.36197      0.050123105    20.531274      715.43399     -84.07155       631.36244    
    656000   301.66944      0.050123105    29.361631      748.4502      -70.756137      677.69407    
    657000   294.51324      0.050123105    7.9233841      730.69546     -75.691769      655.00369    
    658000   294.35653      0.050123105    27.532647      730.30667     -77.682411      652.62426    
    659000   305.69472      0.050123105    29.050841      758.43702     -77.74303       680.69399    
    660000   308.98521      0.050123105    28.039093      766.60083     -74.683158      691.91768    
    661000   301.9898       0.050123105    21.981397      749.24501     -80.398704      668.84631    
    662000   305.60323      0.050123105    31.055972      758.21005     -76.330564      681.87948    
    663000   313.05688      0.050123105    19.126634      776.70274     -85.819982      690.88276    
    664000   292.61798      0.050123105    30.78782       725.99327     -84.170492      641.82278    
    665000   305.51144      0.050123105    23.338326      757.98231     -76.857563      681.12475    
    666000   314.38851      0.050123105    19.263387      780.00655     -82.566097      697.44045    
    667000   298.0098       0.050123105    24.740284      739.37053     -81.960399      657.41014    
    668000   299.51561      0.050123105    37.725151      743.10648     -80.622589      662.4839     
    669000   298.54654      0.050123105    16.768625      740.70219     -81.248188      659.454      
    670000   291.3074       0.050123105    16.622483      722.74169     -80.24091       642.50078    
    671000   309.74056      0.050123105    23.148103      768.47486     -79.650276      688.82458    
    672000   293.13487      0.050123105    22.916806      727.27569     -78.612555      648.66314    
    673000   294.49475      0.050123105    21.972447      730.64958     -79.916637      650.73295    
    674000   308.24446      0.050123105    26.793757      764.763       -80.637688      684.12531    
    675000   312.55789      0.050123105    24.191835      775.46475     -88.801848      686.6629     
    676000   302.67566      0.050123105    23.558197      750.94666     -82.402609      668.54405    
    677000   294.74202      0.050123105    32.75651       731.26308     -77.77652       653.48656    
    678000   299.11529      0.050123105    27.917563      742.11328     -79.913497      662.19979    
    679000   311.90208      0.050123105    14.703861      773.83767     -80.653992      693.18368    
    680000   294.23637      0.050123105    27.976786      730.00854     -77.968834      652.0397     
    681000   308.3042       0.050123105    29.397131      764.91122     -80.164516      684.7467     
    682000   299.23662      0.050123105    17.627054      742.4143      -81.904892      660.50941    
    683000   298.74719      0.050123105    30.455432      741.20002     -80.336738      660.86328    
    684000   311.06814      0.050123105    25.202929      771.76862     -76.092209      695.67641    
    685000   290.63766      0.050123105    19.088697      721.08005     -71.149549      649.93051    
    686000   295.66009      0.050123105    23.61096       733.54083     -73.888977      659.65186    
    687000   295.54639      0.050123105    31.161358      733.25873     -78.125846      655.13288    
    688000   310.68076      0.050123105    31.790266      770.80752     -82.710695      688.09683    
    689000   302.07554      0.050123105    11.611133      749.45774     -89.997776      659.45996    
    690000   297.4346       0.050123105    29.702167      737.94343     -90.352996      647.59043    
    691000   303.40277      0.050123105    21.296104      752.75064     -83.674613      669.07603    
    692000   293.0668       0.050123105    26.374086      727.10682     -84.062878      643.04394    
    693000   312.53137      0.050123105    22.635142      775.39894     -86.450297      688.94865    
    694000   306.80821      0.050123105    30.137339      761.19962     -77.718871      683.48075    
    695000   302.61089      0.050123105    25.127304      750.78596     -79.102834      671.68313    
    696000   299.91421      0.050123105    30.410066      744.09541     -68.692822      675.40259    
    697000   311.84663      0.050123105    20.034243      773.70008     -82.688758      691.01132    
    698000   322.12687      0.050123105    20.157855      799.20565     -78.852448      720.3532     
    699000   295.27543      0.050123105    42.175554      732.58649     -78.147252      654.43923    
    700000   297.80406      0.050123105    18.926273      738.86007     -79.474949      659.38512    
    701000   303.8892       0.050123105    11.917195      753.95748     -88.459342      665.49814    
    702000   315.61713      0.050123105    27.646119      783.05481     -80.648698      702.40611    
    703000   295.18419      0.050123105    25.133163      732.36012     -86.559184      645.80094    
    704000   303.04565      0.050123105    27.179456      751.86461     -78.728722      673.13588    
    705000   307.34547      0.050123105    14.980967      762.53259     -77.008453      685.52414    
    706000   300.0389       0.050123105    32.814708      744.40477     -86.525944      657.87883    
    707000   287.0409       0.050123105    19.869592      712.15638     -88.794148      623.36223    
    708000   305.2141       0.050123105    18.715816      757.2446      -86.866786      670.37781    
    709000   307.44784      0.050123105    33.029072      762.78657     -80.24175       682.54482    
    710000   305.07229      0.050123105    40.474058      756.89276     -89.863387      667.02938    
    711000   291.649        0.050123105    25.94669       723.58921     -78.56913       645.02008    
    712000   292.20999      0.050123105    21.499192      724.98104     -82.27309       642.70795    
    713000   296.83509      0.050123105    19.828269      736.45605     -88.150179      648.30587    
    714000   320.88196      0.050123105    29.112563      796.11698     -81.041326      715.07565    
    715000   298.39801      0.050123105    17.951272      740.33368     -92.512488      647.82119    
    716000   290.35216      0.050123105    31.355719      720.37172     -88.461409      631.91031    
    717000   312.77704      0.050123105    30.664385      776.00846     -88.020885      687.98758    
    718000   298.22164      0.050123105    21.933481      739.89612     -84.853541      655.04258    
    719000   299.61211      0.050123105    21.994725      743.3459      -81.118495      662.22741    
    720000   295.61501      0.050123105    25.488731      733.42898     -84.821032      648.60795    
    721000   299.23625      0.050123105    20.029394      742.41339     -88.080776      654.33261    
    722000   295.03463      0.050123105    29.283059      731.98905     -75.492865      656.49619    
    723000   319.83151      0.050123105    30.754821      793.51079     -77.190032      716.32076    
    724000   297.80536      0.050123105    26.004493      738.8633      -96.284933      642.57837    
[...]
   7823000   311.06733      0.050123105    27.432812      771.76663     -86.064455      685.70218    
   7824000   307.87643      0.050123105    11.697985      763.84992     -85.675581      678.17434    
   7825000   285.34355      0.050123105    21.003271      707.94521     -85.532929      622.41228    
   7826000   307.94055      0.050123105    26.481915      764.009       -83.793381      680.21562    
   7827000   314.97147      0.050123105    24.600998      781.45291     -85.06441       696.3885     
   7828000   297.78268      0.050123105    27.287511      738.80704     -88.183664      650.62337    
   7829000   290.82781      0.050123105    23.479427      721.5518      -85.940746      635.61106    
   7830000   303.23142      0.050123105    15.545         752.3255      -87.054272      665.27123    
   7831000   307.37295      0.050123105    33.559259      762.60076     -92.526686      670.07407    
   7832000   291.25152      0.050123105    25.393991      722.60305     -86.089639      636.51341    
   7833000   297.52346      0.050123105    26.621383      738.16391     -94.680903      643.483      
   7834000   295.93287      0.050123105    23.887259      734.2176      -86.977795      647.2398     
   7835000   306.99758      0.050123105    15.054729      761.66945     -83.158149      678.5113     
   7836000   292.50524      0.050123105    26.419313      725.71356     -78.318516      647.39505    
   7837000   303.07943      0.050123105    28.226917      751.94842     -78.712619      673.23581    
   7838000   307.0217       0.050123105    19.206796      761.72929     -73.742721      687.98657    
   7839000   274.48948      0.050123105    13.180982      681.01597     -72.957326      608.05865    
   7840000   303.27721      0.050123105    30.439516      752.43911     -77.313905      675.1252     
   7841000   318.94289      0.050123105    28.908487      791.3061      -76.028403      715.27769    
   7842000   304.66029      0.050123105    32.673778      755.87059     -71.523599      684.34699    
   7843000   296.84995      0.050123105    19.294699      736.49292     -75.368653      661.12427    
   7844000   300.6826       0.050123105    27.255152      746.00182     -87.668468      658.33336    
   7845000   301.34594      0.050123105    47.781784      747.64758     -79.000409      668.64717    
   7846000   303.04177      0.050123105    25.417674      751.855       -96.538474      655.31652    
   7847000   291.71694      0.050123105    5.0218811      723.75776     -89.560399      634.19736    
   7848000   304.29086      0.050123105    30.311763      754.95401     -79.899295      675.05472    
   7849000   304.01543      0.050123105    36.364533      754.27065     -80.177067      674.09359    
   7850000   306.7327       0.050123105    14.884474      761.01228     -77.424272      683.58801    
   7851000   280.4781       0.050123105    11.96426       695.8739      -81.198473      614.67542    
   7852000   295.63947      0.050123105    27.233569      733.48967     -83.376801      650.11287    
   7853000   306.385        0.050123105    25.364347      760.14963     -82.029469      678.12016    
   7854000   308.75162      0.050123105    26.155272      766.02128     -76.653533      689.36775    
   7855000   283.11872      0.050123105    24.964671      702.42535     -74.619204      627.80614    
   7856000   294.51438      0.050123105    19.08532       730.6983      -76.548584      654.14972    
   7857000   304.7383       0.050123105    21.726712      756.06412     -80.836258      675.22786    
   7858000   310.6196       0.050123105    29.559851      770.6558      -77.035679      693.62012    
   7859000   283.51974      0.050123105    30.143213      703.42029     -78.358221      625.06207    
   7860000   310.67522      0.050123105    25.732805      770.79378     -77.622084      693.1717     
   7861000   312.626        0.050123105    24.185394      775.63372     -81.211851      694.42187    
   7862000   311.59799      0.050123105    27.518749      773.08321     -73.552879      699.53033    
   7863000   294.56471      0.050123105    25.935934      730.82316     -73.994392      656.82877    
   7864000   310.18964      0.050123105    23.010876      769.58905     -76.206841      693.38221    
   7865000   308.74091      0.050123105    26.88947       765.99471     -74.099946      691.89476    
   7866000   295.98421      0.050123105    24.379584      734.34499     -74.141983      660.203      
   7867000   300.01894      0.050123105    24.737852      744.35526     -76.376768      667.97849    
   7868000   308.27983      0.050123105    28.091453      764.85076     -73.339593      691.51117    
   7869000   297.32747      0.050123105    19.974189      737.67764     -82.521322      655.15632    
   7870000   302.36938      0.050123105    25.795194      750.18676     -79.878892      670.30787    
   7871000   305.76626      0.050123105    22.234719      758.61452     -84.334856      674.27967    
   7872000   291.6674       0.050123105    26.825476      723.63485     -80.213411      643.42144    
   7873000   286.66075      0.050123105    18.174104      711.21322     -76.726568      634.48665    
   7874000   311.49378      0.050123105    19.85391       772.82465     -71.513515      701.31114    
   7875000   308.22267      0.050123105    27.096966      764.70894     -72.402748      692.3062     
   7876000   273.79235      0.050123105    23.255424      679.28636     -70.495198      608.79116    
   7877000   292.50297      0.050123105    21.938461      725.70792     -73.051895      652.65603    
   7878000   303.62348      0.050123105    29.867398      753.29822     -72.008429      681.28979    
   7879000   291.84089      0.050123105    30.138124      724.06529     -81.696291      642.369      
   7880000   300.66049      0.050123105    23.325058      745.94696     -78.237899      667.70906    
   7881000   307.84895      0.050123105    28.041348      763.78172     -76.535729      687.24599    
   7882000   293.76951      0.050123105    27.408232      728.85024     -71.481148      657.3691     
   7883000   293.96141      0.050123105    12.030302      729.32635     -81.909526      647.41683    
   7884000   303.96484      0.050123105    31.676046      754.14516     -84.138578      670.00658    
   7885000   304.77633      0.050123105    21.196667      756.15847     -80.371937      675.78653    
   7886000   290.14352      0.050123105    19.957931      719.85408     -73.870176      645.9839     
   7887000   291.07193      0.050123105    48.28444       722.15748     -79.187507      642.96997    
   7888000   304.80108      0.050123105    26.315548      756.21988     -85.076997      671.14289    
   7889000   301.06282      0.050123105    25.287574      746.94516     -80.673356      666.2718     
   7890000   299.90984      0.050123105    38.166341      744.08458     -81.591295      662.49328    
   7891000   297.81235      0.050123105    29.179285      738.88065     -76.671691      662.20896    
   7892000   305.31814      0.050123105    25.133547      757.50272     -82.547723      674.955      
   7893000   312.27229      0.050123105    29.942624      774.75616     -83.610653      691.1455     
   7894000   299.86561      0.050123105    27.950009      743.97484     -80.236549      663.73829    
   7895000   296.85947      0.050123105    20.976447      736.51652     -84.026152      652.49037    
   7896000   308.4747       0.050123105    21.075466      765.33423     -78.14923       687.185      
   7897000   306.65611      0.050123105    27.09603       760.82225     -83.97993       676.84232    
   7898000   300.16644      0.050123105    31.755415      744.72122     -84.194122      660.5271     
   7899000   305.57202      0.050123105    20.135172      758.13261     -84.048847      674.08377    
   7900000   301.27357      0.050123105    23.897308      747.46803     -80.958413      666.50962    
   7901000   298.08922      0.050123105    29.778336      739.56758     -86.073734      653.49385    
   7902000   286.18535      0.050123105    31.696834      710.03375     -87.932925      622.10083    
   7903000   300.71728      0.050123105    10.121548      746.08786     -86.438725      659.64913    
   7904000   310.4903       0.050123105    29.543843      770.335       -80.899192      689.4358     
   7905000   298.64128      0.050123105    29.301951      740.93725     -90.337799      650.59945    
   7906000   283.70701      0.050123105    41.774579      703.8849      -90.340656      613.54424    
   7907000   300.22671      0.050123105    13.820795      744.87074     -85.256575      659.61417    
   7908000   303.72932      0.050123105   -11.662732      753.56081     -83.252549      670.30826    
   7909000   300.42467      0.050123105    32.650778      745.36189     -87.624068      657.73783    
   7910000   285.66484      0.050123105    31.396717      708.74235     -88.153381      620.58896    
   7911000   306.80777      0.050123105    12.296974      761.19854     -87.12641       674.07213    
   7912000   304.90782      0.050123105    22.112929      756.48471     -93.346817      663.13789    
   7913000   288.05931      0.050123105    47.98029       714.6831      -90.42649       624.25661    
   7914000   298.49262      0.050123105    16.382188      740.56842     -88.349296      652.21912    
   7915000   317.38112      0.050123105    34.373446      787.43131     -83.261226      704.17008    
   7916000   301.49902      0.050123105    14.821297      748.02737     -84.390617      663.63676    
   7917000   293.08105      0.050123105    41.379764      727.14217     -83.529618      643.61255    
   7918000   300.64995      0.050123105    25.133024      745.9208      -80.901768      665.01903    
   7919000   306.23658      0.050123105    13.850693      759.7814      -79.454197      680.32721    
   7920000   304.60409      0.050123105    28.276678      755.73116     -84.361543      671.36961    
   7921000   288.27724      0.050123105    23.614533      715.22378     -82.220909      633.00288    
   7922000   285.56594      0.050123105    26.755572      708.49696     -87.45029       621.04667    
   7923000   316.7865       0.050123105    27.153852      785.95604     -90.508542      695.4475     
   7924000   305.49784      0.050123105    24.189376      757.94855     -85.651824      672.29673    
   7925000   287.8441       0.050123105    19.890555      714.14915     -88.128062      626.02108    
   7926000   283.60371      0.050123105    24.306571      703.62862     -90.92586       612.70276    
   7927000   304.36076      0.050123105    25.038885      755.12744     -92.167256      662.96018    
   7928000   295.58682      0.050123105    25.013361      733.35904     -91.678487      641.68055    
   7929000   309.63107      0.050123105    22.811499      768.20322     -95.83068       672.37253    
   7930000   295.33567      0.050123105    25.580869      732.73594     -97.435442      635.3005     
   7931000   301.25223      0.050123105    23.249187      747.4151      -95.457913      651.95719    
   7932000   298.51398      0.050123105    25.14473       740.62141     -89.675255      650.94615    
   7933000   308.72896      0.050123105    28.400318      765.96505     -93.42735       672.5377     
   7934000   299.2474       0.050123105    21.822236      742.44105     -95.549765      646.89129    
   7935000   301.11889      0.050123105    23.694932      747.08428     -100.86752      646.21675    
   7936000   298.59344      0.050123105    28.885187      740.81856     -96.577268      644.2413     
   7937000   300.37773      0.050123105    24.927374      745.24542     -105.82342      639.42201    
   7938000   287.73591      0.050123105    20.561005      713.88074     -103.28387      610.59686    
   7939000   308.33594      0.050123105    27.074754      764.98997     -95.116025      669.87395    
   7940000   307.59761      0.050123105    24.612624      763.15814     -89.067481      674.09066    
   7941000   296.18909      0.050123105    24.150789      734.85329     -87.382919      647.47037    
   7942000   294.29242      0.050123105    31.027665      730.14761     -89.063853      641.08376    
   7943000   308.32992      0.050123105    31.630098      764.97503     -91.395131      673.5799     
   7944000   301.09198      0.050123105    19.952352      747.01751     -94.376649      652.64086    
   7945000   294.0043       0.050123105    22.989929      729.43278     -91.831006      637.60178    
   7946000   302.62955      0.050123105    28.428838      750.83225     -94.41041       656.42184    
   7947000   312.92246      0.050123105    21.065557      776.36926     -89.550951      686.8183     
   7948000   296.42165      0.050123105    19.487371      735.43028     -93.707606      641.72268    
   7949000   286.06761      0.050123105    20.71795       709.74163     -90.415501      619.32613    
   7950000   312.71761      0.050123105    40.610818      775.861       -92.937392      682.92361    
   7951000   300.9462       0.050123105    19.952421      746.65582     -90.492832      656.16299    
   7952000   293.71591      0.050123105    28.544173      728.71728     -91.313418      637.40386    
   7953000   308.10799      0.050123105    27.786138      764.42441     -86.460627      677.96378    
   7954000   296.69317      0.050123105    14.146698      736.10394     -91.523398      644.58054    
   7955000   291.38362      0.050123105    9.9766758      722.9308      -84.449347      638.48146    
   7956000   298.24887      0.050123105    24.240803      739.96366     -86.619362      653.3443     
   7957000   306.31845      0.050123105    36.025651      759.98451     -88.635705      671.34881    
   7958000   307.93373      0.050123105    21.865487      763.99206     -86.238145      677.75392    
   7959000   296.56341      0.050123105    21.52258       735.78199     -79.655623      656.12636    
   7960000   281.4771       0.050123105    7.6767261      698.35245     -84.180661      614.17178    
   7961000   300.03497      0.050123105    55.28467       744.39504     -85.340436      659.0546     
   7962000   310.06477      0.050123105    19.256315      769.27925     -89.782149      679.4971     
   7963000   306.6732       0.050123105    15.16442       760.86465     -90.585738      670.27891    
   7964000   293.9592       0.050123105    41.701043      729.32088     -82.52483       646.79605    
   7965000   301.92103      0.050123105    37.18329       749.0744      -79.605684      669.46872    
   7966000   305.56664      0.050123105   -5.0785188      758.11925     -79.468822      678.65043    
   7967000   287.13132      0.050123105    3.0329293      712.38073     -85.644555      626.73618    
   7968000   293.68128      0.050123105    24.572834      728.63135     -80.250826      648.38052    
   7969000   296.78801      0.050123105    27.248144      736.33923     -83.65734       652.68189    
   7970000   308.41717      0.050123105    8.5645358      765.1915      -88.370711      676.82079    
   7971000   297.20272      0.050123105    13.990331      737.36815     -85.40662       651.96153    
   7972000   288.87184      0.050123105    32.877582      716.699       -87.634756      629.06425    
   7973000   294.07469      0.050123105    33.577926      729.60742     -84.737224      644.8702     
   7974000   304.39005      0.050123105    17.202018      755.2001      -87.2611        667.939      
   7975000   304.87844      0.050123105    21.659139      756.4118      -90.982376      665.42943    
   7976000   290.84561      0.050123105    28.572616      721.59597     -89.322722      632.27325    
   7977000   303.84834      0.050123105    31.272935      753.85611     -79.390868      674.46525    
   7978000   313.54061      0.050123105    22.810056      777.90291     -74.289123      703.61378    
   7979000   286.56874      0.050123105    21.782495      710.98495     -82.402094      628.58285    
   7980000   287.6105       0.050123105    34.050386      713.56957     -86.452613      627.11696    
   7981000   301.21057      0.050123105    27.462998      747.31172     -88.763172      658.54854    
   7982000   306.0087       0.050123105    5.2864853      759.21601     -87.489958      671.72606    
   7983000   304.45497      0.050123105    15.854324      755.36117     -81.51911       673.84206    
   7984000   291.92413      0.050123105    45.838153      724.27181     -83.34202       640.92979    
   7985000   300.39479      0.050123105    25.2999        745.28776     -80.635317      664.65244    
   7986000   308.13336      0.050123105    38.167189      764.48736     -84.343474      680.14388    
   7987000   309.24458      0.050123105    26.847547      767.24432     -83.878357      683.36597    
   7988000   303.04335      0.050123105    22.557799      751.8589      -84.505166      667.35374    
   7989000   295.44107      0.050123105    21.85539       732.99745     -88.70443       644.29302    
   7990000   297.37112      0.050123105    26.196346      737.78595     -89.193053      648.5929     
   7991000   299.27269      0.050123105    26.169927      742.50379     -88.956686      653.5471     
   7992000   308.05723      0.050123105    27.156061      764.29847     -78.736329      685.56214    
   7993000   296.20782      0.050123105    32.760379      734.89976     -81.297387      653.60237    
   7994000   294.56207      0.050123105    21.694647      730.81661     -82.071159      648.74545    
   7995000   300.32028      0.050123105    21.963745      745.10289     -83.601387      661.5015     
   7996000   311.66697      0.050123105    51.074954      773.25435     -86.399719      686.85463    
   7997000   294.79216      0.050123105    24.997798      731.38748     -84.645429      646.74205    
   7998000   292.89347      0.050123105    14.760982      726.67676     -78.604749      648.07201    
   7999000   292.76095      0.050123105    11.511427      726.34798     -76.704105      649.64388    
   8000000   298.04066      0.050123105    29.621122      739.44708     -72.44703       667.00005    
Loop time of 15355.4 on 1 procs for 8000000 steps with 1500 atoms

Performance: 11.253 ns/day, 2.133 hours/ns, 520.989 timesteps/s, 781.484 katom-step/s
99.6% CPU use with 1 MPI tasks x 1 OpenMP threads

MPI task timing breakdown:
Section |  min time  |  avg time  |  max time  |%varavg| %total
---------------------------------------------------------------
Pair    | 1261       | 1261       | 1261       |   0.0 |  8.21
Bond    | 362.55     | 362.55     | 362.55     |   0.0 |  2.36
Kspace  | 12036      | 12036      | 12036      |   0.0 | 78.38
Neigh   | 0.067386   | 0.067386   | 0.067386   |   0.0 |  0.00
Comm    | 67.597     | 67.597     | 67.597     |   0.0 |  0.44
Output  | 0.2677     | 0.2677     | 0.2677     |   0.0 |  0.00
Modify  | 1592.1     | 1592.1     | 1592.1     |   0.0 | 10.37
Other   |            | 35.91      |            |       |  0.23

Nlocal:           1500 ave        1500 max        1500 min
Histogram: 1 0 0 0 0 0 0 0 0 0
Nghost:           2025 ave        2025 max        2025 min
Histogram: 1 0 0 0 0 0 0 0 0 0
Neighs:              0 ave           0 max           0 min
Histogram: 1 0 0 0 0 0 0 0 0 0

Total # of neighbors = 0
Ave neighs/atom = 0
Ave special neighs/atom = 2
Neighbor list builds = 29695
Dangerous builds = 0
write_data	last_conf.data pair ij
System init for write_data ...
PPPM initialization ...
  using 12-bit tables for long-range coulomb (src/kspace.cpp:342)
  G vector (1/distance) = 0.18386167
  grid = 24 24 24
  stencil order = 5
  estimated absolute RMS force accuracy = 0.023168919
  estimated relative force accuracy = 6.977251e-05
  using double precision FFTW3
  3d grid and FFT values/proc = 24389 13824
Generated 1 of 1 mixed pair_coeff terms from arithmetic mixing rule
Total wall time: 4:15:55
