LAMMPS data file via write_data, version 29 Aug 2024, timestep = 0, units = real

1500 atoms
2 atom types
1000 bonds
1 bond types
500 angles
1 angle types

0 100 xlo xhi
0 100 ylo yhi
0 100 zlo zhi

Masses

1 12.0107
2 15.9994

PairIJ Coeffs # lj/cut/coul/long/gpu

1 1 0.053649 2.8 12
1 2 0.0917684 2.925 12
2 2 0.156973 3.05 12

Bond Coeffs # harmonic

1 0 1.16

Angle Coeffs # harmonic

1 0 180

Atoms # full

1 1 1 0.7 7.3676671401447 28.38162441196927 9.961491967533478 0 0 0
2 1 2 -0.35 6.360006395902484 28.619310437602827 9.43830445073692 0 0 0
3 1 2 -0.35 8.375327884386916 28.143938386335712 10.484679484330035 0 0 0
4 2 1 0.7 22.79549833517312 23.94051925462695 68.3071125151157 0 0 0
5 2 2 -0.35 23.142818191302705 24.44108634543916 67.31999473838695 0 0 0
6 2 2 -0.35 22.448178479043538 23.439952163814738 69.29423029184446 0 0 0
7 3 1 0.7 37.64004154952245 16.178322823801228 9.071699627242841 0 0 0
8 3 2 -0.35 37.177432694569475 15.114559608964719 9.070766846566809 0 0 0
9 3 2 -0.35 38.102650404475426 17.242086038637737 9.072632407918874 0 0 0
10 4 1 0.7 68.05563507045416 11.058629123055669 62.37967119663007 0 0 0
11 4 2 -0.35 66.97057575269515 11.25767306120683 62.73831835977184 0 0 0
12 4 2 -0.35 69.14069438821316 10.859585184904507 62.0210240334883 0 0 0
13 5 1 0.7 15.133801761611274 53.806207400656405 20.92778283214559 0 0 0
14 5 2 -0.35 14.961142986566852 54.091185850176636 22.038897691513963 0 0 0
15 5 2 -0.35 15.306460536655695 53.52122895113617 19.816667972777214 0 0 0
16 6 1 0.7 33.246059870927624 66.52825068055105 40.309188021490904 0 0 0
17 6 2 -0.35 32.15858568653821 66.7018103257413 39.944665117069235 0 0 0
18 6 2 -0.35 34.33353405531704 66.3546910353608 40.67371092591257 0 0 0
19 7 1 0.7 76.52307719761649 23.35846034035015 85.64294026496026 0 0 0
20 7 2 -0.35 75.50170459805132 23.621136456597473 85.1598261264684 0 0 0
21 7 2 -0.35 77.54444979718166 23.095784224102825 86.12605440345212 0 0 0
22 8 1 0.7 0.8970331870471282 76.43677470108344 72.87240110937152 0 0 0
23 8 2 -0.35 0.42213978731742474 77.45420698290683 73.16379055804259 0 0 0
24 8 2 -0.35 1.3719265867768318 75.41934241926005 72.58101166070045 0 0 0
25 9 1 0.7 66.44544520715505 48.59759665494673 79.80697968965721 0 0 0
26 9 2 -0.35 66.10468820410627 49.30961523010045 78.95697132881052 0 0 0
27 9 2 -0.35 66.78620221020383 47.88557807979301 80.6569880505039 0 0 0
28 10 1 0.7 15.907644068779259 59.77386397299072 19.331794054867604 0 0 0
29 10 2 -0.35 15.914223378753602 58.81432199877346 19.98358843379052 0 0 0
30 10 2 -0.35 15.901064758804916 60.73340594720798 18.67999967594469 0 0 0
31 11 1 0.7 9.462680159817767 39.2654460572011 34.35188337897504 0 0 0
32 11 2 -0.35 9.068269188265221 39.23626797835344 35.44238263401088 0 0 0
33 11 2 -0.35 9.857091131370312 39.29462413604877 33.261384123939195 0 0 0
34 12 1 0.7 52.10395043348146 11.094935522924613 72.58133379397044 0 0 0
35 12 2 -0.35 51.18461165485469 11.7783438142062 72.76400649997939 0 0 0
36 12 2 -0.35 53.023289212108224 10.411527231643026 72.3986610879615 0 0 0
37 13 1 0.7 74.47707526128603 36.203916434293575 79.22351117209695 0 0 0
38 13 2 -0.35 74.56204543810817 35.053073876285104 79.10543714562485 0 0 0
39 13 2 -0.35 74.39210508446389 37.354758992302045 79.34158519856905 0 0 0
40 14 1 0.7 9.552269433416551 44.992367431983524 86.7194293470678 0 0 0
41 14 2 -0.35 8.851250027907493 44.65153548623902 87.57850174090882 0 0 0
42 14 2 -0.35 10.25328883892561 45.33319937772803 85.86035695322678 0 0 0
43 15 1 0.7 93.4490361686093 97.95088581645437 60.53791714857235 0 0 0
44 15 2 -0.35 92.6623990913955 97.95700078461458 59.685412183239634 0 0 0
45 15 2 -0.35 94.2356732458231 97.94477084829417 61.39042211390506 0 0 0
46 16 1 0.7 60.77351605555672 20.484345741795536 80.39888235758939 0 0 0
47 16 2 -0.35 59.62398875193582 20.33417041839999 80.35845525686354 0 0 0
48 16 2 -0.35 61.92304335917762 20.634521065191084 80.43930945831524 0 0 0
49 17 1 0.7 64.01578400471053 13.28176716961049 26.660819643484814 0 0 0
50 17 2 -0.35 63.04405753473323 13.853455939454431 26.933802459756798 0 0 0
51 17 2 -0.35 64.98751047468782 12.710078399766548 26.38783682721283 0 0 0
52 18 1 0.7 88.39574804920505 67.3374629893049 40.74046124738663 0 0 0
53 18 2 -0.35 87.58010951231658 67.95924844274984 40.19850495115352 0 0 0
54 18 2 -0.35 89.21138658609352 66.71567753585995 41.28241754361974 0 0 0
55 19 1 0.7 24.93218482701675 35.23038767056092 17.12557911739013 0 0 0
56 19 2 -0.35 24.752444188508765 35.54200627231553 16.022770362478724 0 0 0
57 19 2 -0.35 25.111925465524738 34.91876906880631 18.22838787230154 0 0 0
58 20 1 0.7 29.60822597593452 25.453977531499216 5.000371907372201 0 0 0
59 20 2 -0.35 30.528685102365397 25.389285655069674 5.703344138469652 0 0 0
60 20 2 -0.35 28.687766849503642 25.51866940792876 4.2973996762747495 0 0 0
61 21 1 0.7 41.25064720457915 99.62756736186685 40.524650896212385 0 0 0
62 21 2 -0.35 42.06028387570821 98.89909687683308 40.92392425269605 0 0 0
63 21 2 -0.35 40.4410105334501 0.35603784690061957 40.125377539728724 0 1 0
64 22 1 0.7 97.80761264162493 52.54566779013056 35.03854872427813 0 0 0
65 22 2 -0.35 96.88230762909512 51.861294388197095 34.89348432301708 0 0 0
66 22 2 -0.35 98.73291765415473 53.23004119206402 35.18361312553918 0 0 0
67 23 1 0.7 92.88840894256178 75.48909763595513 45.263967497862865 0 0 0
68 23 2 -0.35 93.65104768780824 76.0888091763403 44.628099419895634 0 0 0
69 23 2 -0.35 92.12577019731532 74.88938609556996 45.899835575830096 0 0 0
70 24 1 0.7 51.5017365810935 89.68671843860612 64.67679765293227 0 0 0
71 24 2 -0.35 50.68229886593356 90.42659525292943 65.03275288972512 0 0 0
72 24 2 -0.35 52.321174296253446 88.94684162428281 64.32084241613941 0 0 0
73 25 1 0.7 22.938152832415955 21.534654414995877 32.93675283572485 0 0 0
74 25 2 -0.35 21.894332165487764 21.051288156363754 32.7871016569471 0 0 0
75 25 2 -0.35 23.981973499344146 22.018020673628 33.086404014502605 0 0 0
76 26 1 0.7 68.00491002761056 58.52283405071257 93.27189032606404 0 0 0
77 26 2 -0.35 66.92384388419318 58.81974237573454 92.97399531085013 0 0 0
78 26 2 -0.35 69.08597617102795 58.225925725690594 93.56978534127795 0 0 0
79 27 1 0.7 20.66071015813421 44.555627761667424 46.435790344344355 0 0 0
80 27 2 -0.35 19.814025537070126 44.481391189194404 45.6463512499482 0 0 0
81 27 2 -0.35 21.507394779198297 44.62986433414044 47.22522943874051 0 0 0
82 28 1 0.7 46.32831739556432 40.03046724946726 92.06306179615812 0 0 0
83 28 2 -0.35 45.49802066626054 40.585019561883584 92.65355233300113 0 0 0
84 28 2 -0.35 47.1586141248681 39.47591493705093 91.47257125931512 0 0 0
85 29 1 0.7 3.879608029443588 4.572150858385558 44.13947688608406 0 0 0
86 29 2 -0.35 2.7202353546020435 4.5969446825622455 44.16846424735508 0 0 0
87 29 2 -0.35 5.038980704285133 4.54735703420887 44.11048952481304 0 0 0
88 30 1 0.7 52.1880244147908 24.126339389070097 91.38611210109019 0 0 0
89 30 2 -0.35 51.26819892545449 24.175373701098568 90.68104706479133 0 0 0
90 30 2 -0.35 53.107849904127114 24.077305077041625 92.09117713738905 0 0 0
91 31 1 0.7 26.386083022871095 70.89736539446626 72.02018479445026 0 0 0
92 31 2 -0.35 26.69826316450505 69.91182338208831 71.49401894511429 0 0 0
93 31 2 -0.35 26.07390288123714 71.88290740684421 72.54635064378623 0 0 0
94 32 1 0.7 43.24584032560039 32.83835236580966 14.188212162902678 0 0 0
95 32 2 -0.35 42.454469051136286 31.99089761763337 14.154271689327333 0 0 0
96 32 2 -0.35 44.037211600064495 33.68580711398596 14.222152636478024 0 0 0
97 33 1 0.7 61.28182190530087 63.58076239171473 1.8735175495378291 0 0 0
98 33 2 -0.35 60.1406903932092 63.417396630088994 2.0028639837360975 0 0 0
99 33 2 -0.35 62.42295341739255 63.74412815334046 1.7441711153395607 0 0 0
100 34 1 0.7 88.20945508229056 36.311568057309636 88.52433920303562 0 0 0
101 34 2 -0.35 87.21083745901257 36.25916043845581 87.93644781513758 0 0 0
102 34 2 -0.35 89.20807270556855 36.36397567616346 89.11223059093366 0 0 0
103 35 1 0.7 28.568985419612837 58.937947432947325 70.08250554561731 0 0 0
104 35 2 -0.35 27.422773858886977 59.11614952361162 70.07594254773034 0 0 0
105 35 2 -0.35 29.715196980338696 58.75974534228303 70.08906854350428 0 0 0
106 36 1 0.7 76.67070519024072 4.542132376014316 39.61884367261959 0 0 0
107 36 2 -0.35 75.69007239298423 3.9872841821130747 39.894711029640035 0 0 0
108 36 2 -0.35 77.65133798749721 5.096980569915558 39.342976315599145 0 0 0
109 37 1 0.7 73.90560571751818 31.515294328106236 77.55177248155314 0 0 0
110 37 2 -0.35 72.74639905421424 31.51271532383185 77.5089558902751 0 0 0
111 37 2 -0.35 75.06481238082213 31.517873332380624 77.59458907283118 0 0 0
112 38 1 0.7 12.640097463801547 42.11807411262676 78.47161091792938 0 0 0
113 38 2 -0.35 12.683085572779252 42.72735629733275 77.48544295967561 0 0 0
114 38 2 -0.35 12.597109354823843 41.50879192792077 79.45777887618316 0 0 0
115 39 1 0.7 72.36469763906891 33.473219831228825 84.40570346284923 0 0 0
116 39 2 -0.35 71.5761107746655 32.758648839334946 83.94405526905422 0 0 0
117 39 2 -0.35 73.15328450347232 34.187790823122704 84.86735165664425 0 0 0
118 40 1 0.7 6.658100107059861 2.688499355077976 85.60866079554364 0 0 0
119 40 2 -0.35 6.406421847568496 2.729080245989826 86.74030174787445 0 0 0
120 40 2 -0.35 6.909778366551225 2.647918464166126 84.47701984321283 0 0 0
121 41 1 0.7 24.761990702134554 74.77773077542787 89.32114261636563 0 0 0
122 41 2 -0.35 24.24095827139449 75.53045204943093 88.60872708468466 0 0 0
123 41 2 -0.35 25.283023132874618 74.0250095014248 90.03355814804661 0 0 0
124 42 1 0.7 20.443953257260823 1.522394782641155 86.8891118498934 0 0 0
125 42 2 -0.35 19.301332927119113 1.3559142995657423 87.00003087396871 0 0 0
126 42 2 -0.35 21.586573587402533 1.6888752657165678 86.77819282581808 0 0 0
127 43 1 0.7 45.30286115841142 5.18748942072852 86.13469418423935 0 0 0
128 43 2 -0.35 46.40792073041892 5.245255727896513 85.78669074162597 0 0 0
129 43 2 -0.35 44.19780158640391 5.129723113560527 86.48269762685273 0 0 0
130 44 1 0.7 65.80515451068298 87.23186104895167 5.8886497308912915 0 0 0
131 44 2 -0.35 65.18437565502857 88.11418285566728 5.462337824223754 0 0 0
132 44 2 -0.35 66.42593336633739 86.34953924223606 6.314961637558829 0 0 0
133 45 1 0.7 70.53602708994225 99.00730065955189 15.702185088629921 0 0 0
134 45 2 -0.35 69.41406250054142 98.77530734215952 15.883774077326681 0 0 0
135 45 2 -0.35 71.65799167934308 99.23929397694425 15.520596099933162 0 0 0
136 46 1 0.7 6.624784603074558 42.75482387410236 80.32485203832613 0 0 0
137 46 2 -0.35 6.317035730626313 42.412094729772555 81.38947749600305 0 0 0
138 46 2 -0.35 6.932533475522804 43.09755301843216 79.2602265806492 0 0 0
139 47 1 0.7 19.788208147412263 80.41433355790299 23.704107675563595 0 0 0
140 47 2 -0.35 19.06459820965769 80.56259331796683 24.59853917183854 0 0 0
141 47 2 -0.35 20.511818085166837 80.26607379783916 22.80967617928865 0 0 0
142 48 1 0.7 94.93770319732731 17.97763748000266 50.15312640469202 0 0 0
143 48 2 -0.35 93.92765485002953 17.41265994545407 50.23188376356357 0 0 0
144 48 2 -0.35 95.94775154462509 18.54261501455125 50.07436904582046 0 0 0
145 49 1 0.7 23.595483658646923 69.29385087885608 21.75172093405934 0 0 0
146 49 2 -0.35 23.775655429862816 68.40311646231224 21.030797684301614 0 0 0
147 49 2 -0.35 23.41531188743103 70.18458529539991 22.472644183817064 0 0 0
148 50 1 0.7 81.1737387353432 87.02692491329597 61.52701776545821 0 0 0
149 50 2 -0.35 80.50394661995217 86.23430489804481 62.045411470650755 0 0 0
150 50 2 -0.35 81.84353085073424 87.81954492854713 61.00862406026567 0 0 0
151 51 1 0.7 84.5875840562338 63.52523312136774 68.5930708277007 0 0 0
152 51 2 -0.35 83.7636742895727 64.08017174742027 69.1920831962837 0 0 0
153 51 2 -0.35 85.41149382289488 62.970294495315215 67.9940584591177 0 0 0
154 52 1 0.7 43.741401165603385 61.72939029602771 85.86270533775105 0 0 0
155 52 2 -0.35 43.690254706299235 60.57055014592383 85.87128124632486 0 0 0
156 52 2 -0.35 43.792547624907534 62.88823044613159 85.85412942917725 0 0 0
157 53 1 0.7 94.48861158196284 70.09485804945922 84.27923726117203 0 0 0
158 53 2 -0.35 93.44894022054302 70.01701335698304 83.77068670901743 0 0 0
159 53 2 -0.35 95.52828294338266 70.1727027419354 84.78778781332663 0 0 0
160 54 1 0.7 81.1406485182888 30.87964688003047 94.2251126720687 0 0 0
161 54 2 -0.35 80.42043824309401 31.749115275605025 94.49142427264377 0 0 0
162 54 2 -0.35 81.86085879348359 30.010178484455917 93.95880107149364 0 0 0
163 55 1 0.7 41.46867945858681 64.09566046860799 55.76549589436757 0 0 0
164 55 2 -0.35 40.64543569704317 63.92873868812276 56.56550016203063 0 0 0
165 55 2 -0.35 42.29192322013046 64.26258224909321 54.965491626704505 0 0 0
166 56 1 0.7 50.68949663578044 38.36995756177695 83.87674078525824 0 0 0
167 56 2 -0.35 49.550440650215315 38.31507918565579 83.66427943446108 0 0 0
168 56 2 -0.35 51.82855262134557 38.42483593789811 84.08920213605539 0 0 0
169 57 1 0.7 16.38237783516868 38.624275679990774 58.20135360499907 0 0 0
170 57 2 -0.35 15.274035760183894 38.69203117051624 57.865813684390396 0 0 0
171 57 2 -0.35 17.490719910153466 38.55652018946531 58.536893525607745 0 0 0
172 58 1 0.7 90.15003921936734 51.70915990681814 75.85055389248326 0 0 0
173 58 2 -0.35 90.52308701135776 50.70050525096074 76.28535399610362 0 0 0
174 58 2 -0.35 89.77699142737693 52.717814562675535 75.4157537888629 0 0 0
175 59 1 0.7 20.25927096617374 97.56712848207314 10.728398203257656 0 0 0
176 59 2 -0.35 20.003233908952875 96.51036404196024 10.324301750114902 0 0 0
177 59 2 -0.35 20.515308023394606 98.62389292218604 11.13249465640041 0 0 0
178 60 1 0.7 12.188602151437012 53.836359201854265 27.68910556458361 0 0 0
179 60 2 -0.35 11.168794423677024 53.571091506729246 27.20410530857948 0 0 0
180 60 2 -0.35 13.208409879197 54.10162689697928 28.17410582058774 0 0 0
181 61 1 0.7 70.7972239566954 88.94304017952784 65.67629732455886 0 0 0
182 61 2 -0.35 69.72684855039573 89.23772904061812 66.01253379601626 0 0 0
183 61 2 -0.35 71.86759936299508 88.64835131843756 65.34006085310146 0 0 0
184 62 1 0.7 21.529133860733886 40.15279735445641 48.065136348859006 0 0 0
185 62 2 -0.35 22.093186656236643 40.96390847188542 48.6730369978705 0 0 0
186 62 2 -0.35 20.96508106523113 39.3416862370274 47.457235699847516 0 0 0
187 63 1 0.7 30.746615273294324 58.36289825773001 5.2310176683734255 0 0 0
188 63 2 -0.35 29.682746476029205 58.788087667972796 5.049366498206378 0 0 0
189 63 2 -0.35 31.810484070559443 57.93770884748722 5.412668838540473 0 0 0
190 64 1 0.7 17.713952352159634 18.3971827469753 1.450428413902609 0 0 0
191 64 2 -0.35 17.754199681831697 19.3043221599938 0.7285709225632707 0 0 0
192 64 2 -0.35 17.67370502248757 17.4900433339568 2.172285905241947 0 0 0
193 65 1 0.7 77.35035246114728 27.373814502439377 71.70034249858016 0 0 0
194 65 2 -0.35 77.62036071342922 26.760008179763638 72.64688216597024 0 0 0
195 65 2 -0.35 77.08034420886534 27.987620825115116 70.75380283119007 0 0 0
196 66 1 0.7 67.65637363663706 0.6717109590171422 89.44608820110844 0 0 0
197 66 2 -0.35 66.91356623406583 0.8985385185485683 88.5844697119136 0 0 0
198 66 2 -0.35 68.39918103920829 0.4448833994857161 90.30770669030328 0 0 0
199 67 1 0.7 20.40439602937754 36.68406574832465 49.093032092364986 0 0 0
200 67 2 -0.35 20.00817052806695 35.692720908065226 48.63933532160043 0 0 0
201 67 2 -0.35 20.80062153068813 37.67541058858407 49.546728863129545 0 0 0
202 68 1 0.7 6.590376378311951 64.45579028895861 8.4673865272046 0 0 0
203 68 2 -0.35 5.935678419660135 65.12149331881012 7.779047904880042 0 0 0
204 68 2 -0.35 7.245074336963766 63.7900872591071 9.155725149529157 0 0 0
205 69 1 0.7 11.365362727719063 17.651364774280864 66.48776133846853 0 0 0
206 69 2 -0.35 10.262993958620957 17.70757492533762 66.84444539451155 0 0 0
207 69 2 -0.35 12.46773149681717 17.595154623224108 66.13107728242551 0 0 0
208 70 1 0.7 59.804815640582156 39.53647126422099 89.47253776223982 0 0 0
209 70 2 -0.35 58.69104527173703 39.614587569920694 89.15787380137614 0 0 0
210 70 2 -0.35 60.91858600942728 39.45835495852129 89.78720172310351 0 0 0
211 71 1 0.7 64.94216996475224 83.05059759088354 31.393709979669055 0 0 0
212 71 2 -0.35 65.9854911353347 82.6115215984039 31.647271033150197 0 0 0
213 71 2 -0.35 63.89884879416979 83.48967358336319 31.140148926187912 0 0 0
214 72 1 0.7 34.08362829782238 43.54080150068775 90.25082205899564 0 0 0
215 72 2 -0.35 32.92638382891465 43.55908432681115 90.32861008796806 0 0 0
216 72 2 -0.35 35.24087276673011 43.522518674564346 90.17303403002322 0 0 0
217 73 1 0.7 45.56634553967339 33.56948529070685 2.339280910016634 0 0 0
218 73 2 -0.35 45.51445839914091 34.663460063256004 2.721546422028107 0 0 0
219 73 2 -0.35 45.61823268020587 32.4755105181577 1.957015398005161 0 0 0
220 74 1 0.7 16.294254649567534 57.53789528158395 39.40599758150336 0 0 0
221 74 2 -0.35 15.1449039043722 57.63351049464651 39.281697156926725 0 0 0
222 74 2 -0.35 17.44360539476287 57.44228006852139 39.53029800607999 0 0 0
223 75 1 0.7 96.60135232685197 78.92855740102407 52.26423901145544 0 0 0
224 75 2 -0.35 96.06406245798702 78.23623349421919 51.50423427141658 0 0 0
225 75 2 -0.35 97.13864219571691 79.62088130782894 53.024243751494296 0 0 0
226 76 1 0.7 5.065065531556059 28.55638886269014 47.22761523315106 0 0 0
227 76 2 -0.35 6.022479763481794 28.885058232283075 47.79412598679784 0 0 0
228 76 2 -0.35 4.107651299630325 28.227719493097208 46.66110447950429 0 0 0
229 77 1 0.7 54.52922356991527 72.6605395659155 5.688484341692405 0 0 0
230 77 2 -0.35 53.70969305127266 73.26604678766915 5.134110159918449 0 0 0
231 77 2 -0.35 55.348754088557875 72.05503234416184 6.242858523466361 0 0 0
232 78 1 0.7 6.356330824250509 30.852163178311738 32.3065378853616 0 0 0
233 78 2 -0.35 6.492283412796682 30.34490476278273 31.27222371957705 0 0 0
234 78 2 -0.35 6.220378235704337 31.359421593840747 33.34085205114615 0 0 0
235 79 1 0.7 75.98223927243717 33.49545185151298 58.05926837868023 0 0 0
236 79 2 -0.35 75.06930218334898 32.871634777092886 57.70855748773282 0 0 0
237 79 2 -0.35 76.89517636152536 34.11926892593308 58.40997926962764 0 0 0
238 80 1 0.7 2.123640478646215 92.02552460694011 72.99206884251538 0 0 0
239 80 2 -0.35 3.0587498275772376 91.4324101759899 73.33759131261017 0 0 0
240 80 2 -0.35 1.1885311297151926 92.61863903789032 72.64654637242059 0 0 0
241 81 1 0.7 77.70103615601596 21.314674160124117 35.728609206028565 0 0 0
242 81 2 -0.35 76.9570324286951 22.150461479845806 36.03441635101557 0 0 0
243 81 2 -0.35 78.44503988333682 20.478886840402428 35.42280206104156 0 0 0
244 82 1 0.7 90.73492572211424 81.89661157405777 36.350725189014675 0 0 0
245 82 2 -0.35 91.010324569916 80.85691387372185 36.785218188435465 0 0 0
246 82 2 -0.35 90.45952687431249 82.9363092743937 35.916232189593885 0 0 0
247 83 1 0.7 46.638251769653635 49.097492568705924 81.557602240498 0 0 0
248 83 2 -0.35 45.75497410793639 49.14611648648159 80.8072314741888 0 0 0
249 83 2 -0.35 47.52152943137088 49.04886865093026 82.3079730068072 0 0 0
250 84 1 0.7 38.62085604975971 0.7276283114811538 29.24903106375087 0 0 0
251 84 2 -0.35 39.77196245999189 0.584293031433749 29.246026098506366 0 0 0
252 84 2 -0.35 37.46974963952753 0.8709635915285586 29.252036028995374 0 0 0
253 85 1 0.7 88.46508846081099 32.74176085029811 90.77461096028546 0 0 0
254 85 2 -0.35 89.37106607573043 32.06166104506265 90.52507375627854 0 0 0
255 85 2 -0.35 87.55911084589155 33.421860655533564 91.02414816429237 0 0 0
256 86 1 0.7 48.88640951779038 33.88476550294308 1.2538079643872604 0 0 0
257 86 2 -0.35 48.25105886213903 34.19990576257342 2.171749226736612 0 0 0
258 86 2 -0.35 49.521760173441734 33.56962524331274 0.3358667020379089 0 0 0
259 87 1 0.7 72.75045745668488 16.938474502851474 84.94096942476041 0 0 0
260 87 2 -0.35 72.43702202581173 16.429435674123393 85.93507087910021 0 0 0
261 87 2 -0.35 73.06389288755804 17.447513331579554 83.94686797042061 0 0 0
262 88 1 0.7 2.8731219483879964 88.5605865570533 37.77826439485805 0 0 0
263 88 2 -0.35 2.877772674886535 88.30172952652204 36.647525075435766 0 0 0
264 88 2 -0.35 2.868471221889458 88.81944358758456 38.90900371428033 0 0 0
265 89 1 0.7 39.289684379142564 41.72536024904128 78.12970563682248 0 0 0
266 89 2 -0.35 38.51358971903716 42.21802506916765 77.42220407953393 0 0 0
267 89 2 -0.35 40.06577903924797 41.23269542891491 78.83720719411103 0 0 0
268 90 1 0.7 25.962638075446076 54.05813402219588 55.05851104625431 0 0 0
269 90 2 -0.35 26.7167759496867 53.282379321102425 55.47693751574118 0 0 0
270 90 2 -0.35 25.208500201205453 54.833888723289334 54.64008457676744 0 0 0
271 91 1 0.7 68.39515439625605 17.359937875233562 68.47586905047105 0 0 0
272 91 2 -0.35 67.38913640263979 17.161445492434083 67.93353283511114 0 0 0
273 91 2 -0.35 69.4011723898723 17.55843025803304 69.01820526583096 0 0 0
274 92 1 0.7 73.93113126695674 60.52320374200269 13.48529183933758 0 0 0
275 92 2 -0.35 73.04515157575469 60.23070633206051 14.174556122435597 0 0 0
276 92 2 -0.35 74.81711095815879 60.81570115194488 12.796027556239562 0 0 0
277 93 1 0.7 47.299943746672916 70.15455033171668 87.52742516227411 0 0 0
278 93 2 -0.35 46.140947724114056 70.10736201582756 87.53749901636706 0 0 0
279 93 2 -0.35 48.458939769231776 70.2017386476058 87.51735130818116 0 0 0
280 94 1 0.7 73.43470234118156 17.04224823836342 29.06614217398043 0 0 0
281 94 2 -0.35 73.52415739945371 16.379950990629098 30.014277263613266 0 0 0
282 94 2 -0.35 73.34524728290941 17.704545486097743 28.118007084347596 0 0 0
283 95 1 0.7 14.65151808906883 48.06452297981107 20.43772168477891 0 0 0
284 95 2 -0.35 13.500626319252504 47.92582919498282 20.480291253945822 0 0 0
285 95 2 -0.35 15.802409858885156 48.20321676463933 20.395152115612 0 0 0
286 96 1 0.7 96.78835607915575 21.90062237060658 83.7601827847586 0 0 0
287 96 2 -0.35 96.17017529892402 22.235748289604775 84.68275697763835 0 0 0
288 96 2 -0.35 97.40653685938747 21.565496451608386 82.83760859187885 0 0 0
289 97 1 0.7 57.392063437677955 88.41019705329565 10.181874740022176 0 0 0
290 97 2 -0.35 57.38406578918744 88.87166473968803 9.117645623696994 0 0 0
291 97 2 -0.35 57.40006108616847 87.94872936690327 11.246103856347357 0 0 0
292 98 1 0.7 26.768755552716904 2.4745745130230556 90.17384037849206 0 0 0
293 98 2 -0.35 26.47730514465792 1.8908175727456524 91.13294646976675 0 0 0
294 98 2 -0.35 27.06020596077589 3.058331453300459 89.21473428721737 0 0 0
295 99 1 0.7 51.735241316135614 14.200800291356073 72.85049682150152 0 0 0
296 99 2 -0.35 50.637939698557396 13.925148490643634 72.59447876584095 0 0 0
297 99 2 -0.35 52.83254293371383 14.476452092068511 73.1065148771621 0 0 0
298 100 1 0.7 98.3000789761078 29.42735144376166 85.49571530218036 0 0 0
299 100 2 -0.35 98.0324884564266 30.544224964660454 85.33265441756397 0 0 0
300 100 2 -0.35 98.56766949578899 28.310477922862862 85.65877618679674 0 0 0
301 101 1 0.7 26.48708374541583 68.41650920380675 76.2701883801586 0 0 0
302 101 2 -0.35 25.615947642323412 68.32114123096292 75.5101707227028 0 0 0
303 101 2 -0.35 27.35821984850825 68.51187717665059 77.0302060376144 0 0 0
304 102 1 0.7 73.05610532549028 53.96220551522551 42.78809439520729 0 0 0
305 102 2 -0.35 74.15142575631715 54.344054541201785 42.780064751740035 0 0 0
306 102 2 -0.35 71.9607848946634 53.58035648924924 42.79612403867454 0 0 0
307 103 1 0.7 39.502500248841244 18.521682274770775 93.91399207241552 0 0 0
308 103 2 -0.35 38.476397069478 17.982003754877397 93.87579049566365 0 0 0
309 103 2 -0.35 40.52860342820449 19.061360794664154 93.9521936491674 0 0 0
310 104 1 0.7 12.464761087887343 95.23960412258265 92.02648824640852 0 0 0
311 104 2 -0.35 11.305166229833748 95.26144423801881 92.00497605141588 0 0 0
312 104 2 -0.35 13.624355945940938 95.21776400714649 92.04800044140116 0 0 0
313 105 1 0.7 89.18795738797074 81.99981962423763 70.96842456188445 0 0 0
314 105 2 -0.35 88.3080141885395 82.64587837574037 70.57611339025989 0 0 0
315 105 2 -0.35 90.06790058740198 81.3537608727349 71.360735733509 0 0 0
316 106 1 0.7 66.31161159198341 99.25602646509931 96.03679892422483 0 0 0
317 106 2 -0.35 65.18158251851756 99.1774526469126 95.78687804030855 0 0 0
318 106 2 -0.35 67.44164066544926 99.33460028328602 96.2867198081411 0 0 0
319 107 1 0.7 90.47951944660373 89.28333906889118 85.07973085394117 0 0 0
320 107 2 -0.35 91.17851195978085 88.36586102859128 85.20319547271839 0 0 0
321 107 2 -0.35 89.78052693342661 90.20081710919108 84.95626623516395 0 0 0
322 108 1 0.7 35.03646218918099 57.82001356492751 80.96798573665693 0 0 0
323 108 2 -0.35 36.187514993711815 57.864340147578865 81.10477972501957 0 0 0
324 108 2 -0.35 33.88540938465016 57.77568698227615 80.83119174829429 0 0 0
325 109 1 0.7 28.936275992978494 31.99061398952762 66.24932199076252 0 0 0
326 109 2 -0.35 27.788368332361696 32.09181145562557 66.11640443905237 0 0 0
327 109 2 -0.35 30.084183653595293 31.88941652342967 66.38223954247267 0 0 0
328 110 1 0.7 52.35469874569899 25.421818962982773 64.5113108514395 0 0 0
329 110 2 -0.35 53.12594152327165 26.187035363079215 64.91779386346516 0 0 0
330 110 2 -0.35 51.58345596812633 24.65660256288633 64.10482783941384 0 0 0
331 111 1 0.7 41.60148014389048 96.0767783671975 62.414017488441445 0 0 0
332 111 2 -0.35 40.762628377100214 96.36953642912641 63.15981935926806 0 0 0
333 111 2 -0.35 42.44033191068074 95.7840203052686 61.66821561761483 0 0 0
334 112 1 0.7 92.39192823525141 31.137849870667722 33.84277631241957 0 0 0
335 112 2 -0.35 91.51669797573453 30.42302942630339 34.104699440731636 0 0 0
336 112 2 -0.35 93.2671584947683 31.852670315032054 33.58085318410751 0 0 0
337 113 1 0.7 95.54148283579455 65.70202119913978 53.87029394221972 0 0 0
338 113 2 -0.35 94.54933166484906 66.27878311359497 54.039355315766315 0 0 0
339 113 2 -0.35 96.53363400674004 65.12525928468459 53.70123256867312 0 0 0
340 114 1 0.7 98.0302868867434 95.03170549638183 97.87427768943566 0 0 0
341 114 2 -0.35 96.94762931742288 94.76933622038169 97.55083534433513 0 0 0
342 114 2 -0.35 99.11294445606391 95.29407477238198 98.19772003453619 0 0 0
343 115 1 0.7 72.98512634494581 61.01847950416547 37.58502650893528 0 0 0
344 115 2 -0.35 73.89875122596494 61.152825950091476 36.88300043445527 0 0 0
345 115 2 -0.35 72.07150146392668 60.88413305823946 38.28705258341529 0 0 0
346 116 1 0.7 91.5405356751478 21.78309220903697 8.430757284365017 0 0 0
347 116 2 -0.35 91.76961493765626 20.70805986326845 8.060044259182442 0 0 0
348 116 2 -0.35 91.31145641263933 22.85812455480549 8.801470309547591 0 0 0
349 117 1 0.7 95.73767832281891 63.15957161745036 22.92017448829495 0 0 0
350 117 2 -0.35 95.92820228496177 63.04788945235428 21.781391052408726 0 0 0
351 117 2 -0.35 95.54715436067605 63.27125378254644 24.058957924181176 0 0 0
352 118 1 0.7 19.37262477324001 95.70456384481143 6.6045397457687836 0 0 0
353 118 2 -0.35 18.2180329363387 95.77735624406886 6.689504189927603 0 0 0
354 118 2 -0.35 20.527216610141316 95.63177144555401 6.519575301609964 0 0 0
355 119 1 0.7 2.4995071359442114 9.216433814361894 0.6031179803438103 0 0 0
356 119 2 -0.35 3.496602859731331 9.643050111459804 1.0146986560999824 0 0 0
357 119 2 -0.35 1.502411412157092 8.789817517263984 0.19153730458763796 0 0 0
358 120 1 0.7 36.60389563841927 1.6739949126141123 34.83249630538398 0 0 0
359 120 2 -0.35 35.95184225271499 0.7895730023426518 35.204281548264014 0 0 0
360 120 2 -0.35 37.255949024123545 2.558416822885573 34.46071106250394 0 0 0
361 121 1 0.7 29.765404588433636 67.15491780413078 72.7035340260265 0 0 0
362 121 2 -0.35 28.720065164861783 66.67413452772128 72.85088710760752 0 0 0
363 121 2 -0.35 30.81074401200549 67.63570108054027 72.55618094444549 0 0 0
364 122 1 0.7 28.296375427533114 77.18181054907936 94.68989837667434 0 0 0
365 122 2 -0.35 27.343232123505565 76.59156833807461 94.39201924961829 0 0 0
366 122 2 -0.35 29.249518731560663 77.77205276008411 94.98777750373038 0 0 0
367 123 1 0.7 53.12201676569973 21.73578111535673 13.273205800574834 0 0 0
368 123 2 -0.35 53.11302489002392 22.270162662926268 12.24366439403063 0 0 0
369 123 2 -0.35 53.131008641375544 21.201399567787192 14.302747207119038 0 0 0
370 124 1 0.7 82.76989026124119 13.545620680575082 61.24677842540982 0 0 0
371 124 2 -0.35 81.61781273326523 13.642760586453486 61.341018587860525 0 0 0
372 124 2 -0.35 83.92196778921715 13.448480774696678 61.15253826295912 0 0 0
373 125 1 0.7 74.60499586286255 86.16546713102863 83.00607119826883 0 0 0
374 125 2 -0.35 73.72602636602433 86.54515962795875 82.35120767706542 0 0 0
375 125 2 -0.35 75.48396535970078 85.78577463409852 83.66093471947224 0 0 0
376 126 1 0.7 83.03862930416997 30.242715184689832 89.31410908201435 0 0 0
377 126 2 -0.35 82.39449666722894 29.347159145766128 89.67281861237933 0 0 0
378 126 2 -0.35 83.68276194111101 31.138271223613536 88.95539955164938 0 0 0
379 127 1 0.7 2.231341415192625 2.155165142451956 21.86054919001672 0 0 0
380 127 2 -0.35 1.8808792848614808 3.1049489238081938 22.426841573751837 0 0 0
381 127 2 -0.35 2.5818035455237696 1.2053813610957178 21.294256806281602 0 0 0
382 128 1 0.7 10.25023661099851 75.72672105195313 39.00072017638047 0 0 0
383 128 2 -0.35 9.341797817382089 75.20270566298885 38.50499159098182 0 0 0
384 128 2 -0.35 11.15867540461493 76.25073644091742 39.49644876177912 0 0 0
385 129 1 0.7 85.10400442644209 43.00239521218575 41.25633120595307 0 0 0
386 129 2 -0.35 84.04350046648524 43.46720179535918 41.326232501752756 0 0 0
387 129 2 -0.35 86.16450838639894 42.537588629012326 41.18642991015338 0 0 0
388 130 1 0.7 95.15857845319368 30.22806282631497 43.05192187570591 0 0 0
389 130 2 -0.35 94.08873912570296 30.00186735138464 42.664779239878726 0 0 0
390 130 2 -0.35 96.22841778068441 30.454258301245304 43.43906451153309 0 0 0
391 131 1 0.7 73.65096498916436 51.76857288543534 74.40448551178187 0 0 0
392 131 2 -0.35 72.92093736394678 50.97921858630027 74.83989274283822 0 0 0
393 131 2 -0.35 74.38099261438195 52.55792718457041 73.96907828072553 0 0 0
394 132 1 0.7 16.187996517954392 71.65747725947642 47.220300020286956 0 0 0
395 132 2 -0.35 15.892491479143589 72.3591149071061 48.09550364428888 0 0 0