LAMMPS data file via write_data, version 29 Aug 2024, timestep = 4000000, units = real

1500 atoms
2 atom types
1000 bonds
1 bond types
500 angles
1 angle types

0 100 xlo xhi
0 100 ylo yhi
0 100 zlo zhi

Masses

1 12.0107
2 15.9994

PairIJ Coeffs # lj/cut/coul/long/gpu

1 1 0.053649 2.8 12
1 2 0.0917684 2.925 12
2 2 0.156973 3.05 12

Bond Coeffs # harmonic

1 0 1.16

Angle Coeffs # harmonic

1 0 180

Atoms # full

1235 412 2 -0.35 4.077861327667565 24.533808417594813 18.22904641919796 -1 -1 -3
777 259 2 -0.35 5.253389166231529 22.79311647957528 20.67643690406349 -2 -2 0
1234 412 1 0.7 4.401742380137223 23.457703998454697 17.941469746016413 -1 -1 -3
775 259 1 0.7 4.601995130710957 22.318411605691598 21.51066774334049 -2 -2 0
776 259 2 -0.35 3.9506010951903847 21.843706731807917 22.34489858261749 -2 -2 0
768 256 2 -0.35 21.673881855962662 14.845582485236829 3.007075327675474 -1 -9 2
766 256 1 0.7 21.25034906704688 14.534407636506602 1.972962089083387 -1 -9 2
767 256 2 -0.35 20.826816278131098 14.223232787776375 0.9388488504913004 -1 -9 2
229 77 1 0.7 18.81244637809306 12.652398990988262 24.104485643267434 -2 2 -4
228 76 2 -0.35 3.255621425510891 22.36455459502329 1.2553885677275802 2 -1 3
226 76 1 0.7 3.3299801429190916 23.258391165763125 1.9910018941117713 2 -1 3
649 217 1 0.7 12.441431920006607 23.577918912121138 4.535638433216987 0 2 -1
651 217 2 -0.35 13.485703671014456 23.62184865600833 5.038795155967366 0 2 -1
227 76 2 -0.35 3.404338860327292 24.152227736502965 2.726615220495962 2 -1 3
1236 412 2 -0.35 4.725623432606881 22.381599579314578 17.65389307283486 -1 -1 -3
231 77 2 -0.35 19.11537398847296 12.202524390123475 23.079084401622822 -2 2 -4
650 217 2 -0.35 11.397160168998758 23.533989168233944 4.032481710466607 0 2 -1
356 119 2 -0.35 31.202983488334162 18.450570600596528 1.830269028743031 -8 1 5
355 119 1 0.7 32.30608530876967 18.417696856193043 2.1876003745262076 -8 1 5
357 119 2 -0.35 33.40918712920517 18.384823111789558 2.544931720309384 -8 1 5
1036 346 1 0.7 27.928627672699434 19.48530356270272 21.37067184570514 2 5 -6
1038 346 2 -0.35 27.369344187297195 19.24194065529573 22.35737163705755 2 5 -6
1037 346 2 -0.35 28.487911158101674 19.728666470109708 20.38397205435273 2 5 -6
277 93 1 0.7 43.911533142625395 16.150993347449102 12.321143579447645 0 -3 1
278 93 2 -0.35 43.34685769201023 15.558422827848672 13.14309358691222 0 -3 1
279 93 2 -0.35 44.47620859324056 16.74356386704953 11.499193571983069 0 -3 1
148 50 1 0.7 30.456100750558356 0.32088849428101374 13.284322591143205 -1 0 -12
149 50 2 -0.35 30.596363156142605 1.4718113090351417 13.248223670640158 -1 0 -12
941 314 2 -0.35 45.49961070620093 1.7096189223598135 0.6687673336709737 -2 2 1
940 314 1 0.7 45.652126716941765 2.833419238040582 0.4250221451165475 -2 2 1
942 314 2 -0.35 45.8046427276826 3.957219553721351 0.1812769565621213 -2 2 1
717 239 2 -0.35 53.874195154966195 17.36556922109003 13.31871214066889 -2 -2 1
715 239 1 0.7 53.21530816190979 17.286517000055934 12.36728233415168 -2 -2 1
716 239 2 -0.35 52.55642116885339 17.207464779021834 11.415852527634472 -2 -2 1
383 128 2 -0.35 66.8351765250596 17.572812256246447 23.127776795325364 1 3 -2
384 128 2 -0.35 67.14011943636501 15.497579982626437 22.136403590438388 1 3 -2
382 128 1 0.7 66.98764798071231 16.535196119436442 22.632090192881876 1 3 -2
303 101 2 -0.35 53.030312032404034 5.674658943230936 23.864451192745328 -5 -3 -1
301 101 1 0.7 53.063364321636136 4.655928554950516 23.310649836507398 -5 -3 -1
302 101 2 -0.35 53.09641661086824 3.637198166670097 22.756848480269465 -5 -3 -1
1251 417 2 -0.35 50.76548324397013 22.76525123825921 23.27700895146499 1 -5 1
1249 417 1 0.7 51.904666102304695 22.572410678951204 23.173689379446937 1 -5 1
1250 417 2 -0.35 53.04384896063926 22.379570119643198 23.070369807428886 1 -5 1
1082 361 2 -0.35 53.588424391939796 23.097235629434667 19.69327791385733 -4 -1 7
1083 361 2 -0.35 54.7461404890407 23.50484657288224 17.72453548344847 -4 -1 7
1081 361 1 0.7 54.16728244049025 23.301041101158454 18.7089066986529 -4 -1 7
1147 383 1 0.7 54.069403976341746 99.50513842001136 5.047959406588829 -4 2 -3
1148 383 2 -0.35 54.36660654876826 0.6183967023782231 5.18184976353729 -4 3 -3
1356 452 2 -0.35 60.0495754413949 13.456228234016045 1.896826576848175 0 0 3
1354 452 1 0.7 59.38205345453128 13.019319952916545 1.0547306494381616 0 0 3
638 213 2 -0.35 94.63056198266216 20.642817283590087 18.388720558687066 4 -1 2
1408 470 1 0.7 97.96287744070838 21.707344968483696 22.062256134403764 2 4 -1
1410 470 2 -0.35 98.19371015838506 21.254046594830424 21.019741462615503 2 4 -1
567 189 2 -0.35 94.56606050702825 11.26831868436183 10.295082993964321 2 -3 1
639 213 2 -0.35 96.40508784103719 19.796876753297948 17.156713011160026 4 -1 2
565 189 1 0.7 95.0537621335852 12.080022200472284 9.625094542281545 2 -3 1
566 189 2 -0.35 95.54146376014214 12.891725716582737 8.955106090598768 2 -3 1
43 15 1 0.7 87.6712880537951 15.072791919625265 11.423855950738155 1 1 2
44 15 2 -0.35 87.11970583387343 14.091790402451883 11.142798878297675 1 1 2
45 15 2 -0.35 88.22287027371677 16.05379343679865 11.704913023178634 1 1 2
338 113 2 -0.35 79.16926064338669 7.745072601225294 6.985772469241984 8 3 1
337 113 1 0.7 80.20325853900215 7.27978690222797 6.740910119804275 8 3 1
339 113 2 -0.35 81.23725643461762 6.8145012032306465 6.496047770366567 8 3 1
637 213 1 0.7 95.51782491184967 20.219847018444018 17.772716784923546 4 -1 2
1142 381 2 -0.35 95.23890073302991 6.788015793931125 16.19230840771888 -5 -5 1
1141 381 1 0.7 96.2457919365575 6.388097651342727 15.777777849751155 -5 -5 1
1143 381 2 -0.35 97.25268314008508 5.988179508754328 15.36324729178343 -5 -5 1
419 140 2 -0.35 90.42193893273388 5.756319525266858 1.9723581673954143 -1 -1 -2
420 140 2 -0.35 89.99010205840578 6.996386067498542 3.8849877407357245 -1 -1 -2
418 140 1 0.7 90.20602049556983 6.3763527963827 2.9286729540655694 -1 -1 -2
1178 393 2 -0.35 76.00530922662276 14.250784804533625 2.3163293565905168 -2 4 2
32 11 2 -0.35 92.46571729105558 2.420489357131637 21.93449372112704 3 1 -3
31 11 1 0.7 92.5624619582709 3.39267115964088 21.309111428257246 3 1 -3
33 11 2 -0.35 92.65920662548623 4.364852962150123 20.68372913538745 3 1 -3
1177 393 1 0.7 76.7193289840142 14.660501429579876 3.1335857871029917 -2 4 2
1409 470 2 -0.35 97.7320447230317 22.160643342136968 23.104770806192022 2 4 -1
1179 393 2 -0.35 77.43334874140564 15.070218054626128 3.950842217615467 -2 4 2
1421 474 2 -0.35 97.01567114064365 9.80898648350455 22.92108060520432 3 -5 0
295 99 1 0.7 78.88735991806281 23.36743219555737 2.7628541841339973 11 0 4
297 99 2 -0.35 79.43654988550858 24.11246749297243 2.0636311973382524 11 0 4
1420 474 1 0.7 97.01704384398242 8.801406927827285 23.495868874627003 3 -5 0
296 99 2 -0.35 78.33816995061706 22.622396898142306 3.4620771709297427 11 0 4
923 308 2 -0.35 91.82516379364043 20.10503000533335 2.0212984435297003 -2 -1 -3
723 241 2 -0.35 91.96733242209082 24.653617381147775 16.008442029877305 -1 8 6
1422 474 2 -0.35 97.0184165473212 7.793827372150023 24.070657144049687 3 -5 0
828 276 2 -0.35 91.95679211736649 8.137536626568943 24.50200039403011 4 3 -3
924 308 2 -0.35 90.94930457087895 18.09321865876908 1.267716511862108 -2 -1 -3
922 308 1 0.7 91.38723418225969 19.099124332051215 1.644507477695904 -2 -1 -3
1025 342 2 -0.35 14.206999732021822 42.74210060834342 3.0105078338299682 -2 3 -2
1024 342 1 0.7 15.32932786389012 43.02116205334723 2.9204840906846976 -2 3 -2
1026 342 2 -0.35 16.451655995758415 43.30022349835105 2.8304603475394274 -2 3 -2
781 261 1 0.7 19.214785634350243 26.817857355037518 21.372424663518256 -5 -2 -5
782 261 2 -0.35 18.492300996576883 26.925517210736434 20.47130019728044 -5 -2 -5
783 261 2 -0.35 19.9372702721236 26.710197499338598 22.27354912975607 -5 -2 -5
813 271 2 -0.35 3.859096004565955 34.05128539589951 7.046075434465127 -2 -1 4
811 271 1 0.7 4.0083250702259745 34.41464196845893 5.954607300646976 -2 -1 4
812 271 2 -0.35 4.157554135885994 34.77799854101835 4.863139166828825 -2 -1 4
617 206 2 -0.35 9.593564002845193 30.855903929292495 24.306711896548126 0 0 -10
1322 441 2 -0.35 18.047348631162333 34.97310030366304 21.933677879057363 1 2 1
616 206 1 0.7 9.50462033812329 30.430761066505216 23.23109924753106 0 0 -10
618 206 2 -0.35 9.41567667340139 30.005618203717937 22.155486598513992 0 0 -10
530 177 2 -0.35 6.1266943239042435 27.545527471503004 24.61327714021802 8 11 -4
1321 441 1 0.7 16.922059061064772 35.254690180048286 21.92815294033529 1 2 1
1323 441 2 -0.35 15.796769490967213 35.53628005643353 21.922628001613223 1 2 1
1138 380 1 0.7 36.27547451797484 28.046995538482793 13.752138561212321 4 -1 5
1139 380 2 -0.35 36.91959145156475 27.765222266939496 14.67480708202874 4 -1 5
1140 380 2 -0.35 35.631357584384936 28.32876881002609 12.829470040395902 4 -1 5
747 249 2 -0.35 36.00713961077871 33.22993724940653 9.240387633002697 -2 -5 -2
745 249 1 0.7 35.170251499020516 33.3928822972572 10.026941636093639 -2 -5 -2
746 249 2 -0.35 34.333363387262324 33.55582734510787 10.813495639184579 -2 -5 -2
711 237 2 -0.35 34.244389618539415 32.41862757026853 25.05362155410059 0 1 0
868 290 1 0.7 36.807261868792224 28.89616627652922 18.364050361982613 1 -2 -3
869 290 2 -0.35 35.70364334076563 29.053330867585053 18.684870305118736 1 -2 -3
992 331 2 -0.35 45.62641086359991 39.53863809035332 18.840213139154333 -1 -2 1
991 331 1 0.7 45.07856725339185 38.5693698831474 18.514657427711736 -1 -2 1
993 331 2 -0.35 44.5307236431838 37.60010167594149 18.18910171626914 -1 -2 1
870 290 2 -0.35 37.91088039681881 28.73900168547339 18.043230418846488 1 -2 -3
1022 341 2 -0.35 33.47029106563536 36.852386824084405 16.75258566863869 2 4 1
1021 341 1 0.7 32.358489309624304 36.52231502387571 16.776026275239474 2 4 1
1023 341 2 -0.35 31.246687553613253 36.19224322366701 16.799466881840257 2 4 1
466 156 1 0.7 36.25153370187479 43.591584133615726 17.216856977543245 7 -6 1
467 156 2 -0.35 36.45551438841564 44.61882199204909 16.718084221952648 7 -6 1
252 84 2 -0.35 49.7624853596833 42.39363973345087 9.548745037997316 2 -2 3
468 156 2 -0.35 36.047553015333946 42.56434627518236 17.71562973313384 7 -6 1
250 84 1 0.7 48.98126520964291 43.249085710006625 9.607967148439856 2 -2 3
270 90 2 -0.35 49.98332906488595 29.62040552840568 11.016503681335857 -4 -3 2
268 90 1 0.7 49.950746920927976 28.799494084811098 11.835431520445143 -4 -3 2
269 90 2 -0.35 49.91816477697001 27.978582641216512 12.65435935955443 -4 -3 2
251 84 2 -0.35 48.20004505960252 44.10453168656239 9.667189258882397 2 -2 3
939 313 2 -0.35 32.65158135984742 44.493713592409904 0.6314463247965989 3 -1 2
937 313 1 0.7 31.61804264978926 44.03169707399065 0.3785857475639045 3 -1 2
367 123 1 0.7 53.77497383657623 31.463009169536225 15.437045216922277 -3 0 -3
369 123 2 -0.35 54.77142576589695 31.966939633222772 15.751270677891208 -3 0 -3
368 123 2 -0.35 52.77852190725552 30.959078705849677 15.122819755953346 -3 0 -3
1278 426 2 -0.35 56.60726174531466 42.231344549778576 21.485390512326155 -3 1 -3
1277 426 2 -0.35 55.56318137077032 44.198063825072786 22.136782455536355 -3 1 -3
1276 426 1 0.7 56.08522155804249 43.21470418742568 21.811086483931255 -3 1 -3
162 54 2 -0.35 54.0713515079228 27.224268702985597 14.211377438666903 -2 -4 -4
160 54 1 0.7 54.35442368262267 26.101697749958884 14.138544758280021 -2 -4 -4
161 54 2 -0.35 54.637495857322534 24.97912679693217 14.06571207789314 -2 -4 -4
930 310 2 -0.35 52.329841485163584 38.030677408488735 10.972499774479633 -5 2 0
928 310 1 0.7 53.30437139135354 37.53556309587239 11.360769370745542 -5 2 0
929 310 2 -0.35 54.2789012975435 37.04044878325604 11.74903896701145 -5 2 0
472 158 1 0.7 61.45245256313581 46.86592011383859 13.95442733938895 -3 -2 6
474 158 2 -0.35 60.774516716722474 45.93872448764891 14.116634795823842 -3 -2 6
473 158 2 -0.35 62.130388409549134 47.79311574002827 13.792219882954058 -3 -2 6
1185 395 2 -0.35 71.94786117813258 39.45065008435905 8.601981966733993 -3 2 1
1183 395 1 0.7 71.92331696598579 38.60176557709216 9.392167182346316 -3 2 1
1184 395 2 -0.35 71.898772753839 37.75288106982527 10.18235239795864 -3 2 1
358 120 1 0.7 60.32969733640561 26.061259382578015 0.7246559251117138 -3 1 -1
360 120 2 -0.35 60.50067931812935 25.72391528057406 1.8212707703372528 -3 1 -1
98 33 2 -0.35 99.49864371434204 29.874543067522005 16.296054650635845 -7 -4 -1
980 327 2 -0.35 75.8571070034307 47.11907856651273 12.283308670923265 -1 -2 0
99 33 2 -0.35 97.97359339483135 28.761725669729707 14.94762632027297 -7 -4 -1
97 33 1 0.7 98.7361185545867 29.318134368625856 15.621840485454408 -7 -4 -1
885 295 2 -0.35 91.10010214509077 43.69027981302604 15.994407072800287 0 -5 3
883 295 1 0.7 90.72971618661583 43.048899164598815 16.887180899470223 0 -5 3
822 274 2 -0.35 89.96748587476623 46.696208340520734 15.02488738299348 -6 4 1
884 295 2 -0.35 90.35933022814088 42.40751851617159 17.77995472614016 0 -5 3
169 57 1 0.7 82.86005819247819 37.60120553013946 25.21114216954545 0 -7 -3
821 274 2 -0.35 91.49578093091688 45.71905823868395 13.578549974287101 -6 4 1
820 274 1 0.7 90.73163340284155 46.20763328960234 14.301718678640292 -6 4 1
65 22 2 -0.35 96.44419190274955 39.40525043745382 15.503900866787415 3 -4 2
170 57 2 -0.35 81.97933525748654 37.65704496518501 24.458274937376945 0 -7 -3
981 327 2 -0.35 76.23222652370397 48.15886519216852 10.243571158736676 -1 -2 0
64 22 1 0.7 95.66990344777594 40.0530649108906 14.932574518279317 3 -4 2
66 22 2 -0.35 94.89561499280232 40.70087938432737 14.361248169771219 3 -4 2
979 327 1 0.7 76.04466676356734 47.63897187934062 11.263439914829972 -1 -2 0
965 322 2 -0.35 87.34393767757493 31.768096077169655 13.21221981042113 2 -1 -1
964 322 1 0.7 87.38032076271105 32.81703195156169 13.706193294051934 2 -1 -1
966 322 2 -0.35 87.41670384784719 33.86596782595372 14.200166777682737 2 -1 -1
107 36 2 -0.35 86.75894093448348 43.44713033182948 16.3137016917433 1 -3 0
106 36 1 0.7 86.8801268249467 42.43871432941773 15.753334717310768 1 -3 0
108 36 2 -0.35 87.00131271540992 41.43029832700598 15.192967742878233 1 -3 0
722 241 2 -0.35 90.89275107889124 26.686817862350736 15.702221945495372 -1 8 6
721 241 1 0.7 91.43004175049103 25.670217621749256 15.85533198768634 -1 8 6
180 60 2 -0.35 79.17107135288327 30.21337966463566 0.9118747422215998 -3 2 6
281 94 2 -0.35 9.176991147634364 65.99182053486449 2.438956554681336 3 5 2
574 192 1 0.7 23.42205714173511 53.79912020278235 0.14225757619576254 0 4 -1
575 192 2 -0.35 24.5324972080443 53.51548474268562 0.32134913074522126 0 4 -1
576 192 2 -0.35 22.311617075425918 54.08275566287907 99.9631660216463 0 4 -2
1377 459 2 -0.35 11.792202915595427 65.3333409075633 10.446952254420912 0 2 2
1375 459 1 0.7 11.986458754714949 65.95070276594701 11.409619904641671 0 2 2
280 94 1 0.7 8.182842585927974 65.46805085145596 2.1509739927060383 3 5 2
1376 459 2 -0.35 12.180714593834471 66.56806462433072 12.372287554862428 0 2 2
282 94 2 -0.35 7.188694024221583 64.94428116804743 1.8629914307307405 3 5 2
1268 423 2 -0.35 6.66659770534049 74.2081121412195 4.550639483053384 6 -4 0
1267 423 1 0.7 7.2050049575244195 73.80473704689707 5.4956295169042795 6 -4 0
934 312 1 0.7 19.815057558979145 52.99340480464677 6.496020607841068 7 -1 1
1269 423 2 -0.35 7.743412209708349 73.40136195257465 6.440619550755175 6 -4 0
936 312 2 -0.35 18.916562811293037 53.667736314085005 6.785129936226593 7 -1 1
935 312 2 -0.35 20.713552306665257 52.31907329520854 6.206911279455544 7 -1 1
770 257 2 -0.35 21.92671883317617 72.84444722273685 13.569716989993234 -3 -7 10
769 257 1 0.7 21.878489538477265 72.82124484196426 14.728481670443498 -3 -7 10
771 257 2 -0.35 21.83026024377836 72.79804246119167 15.887246350893761 -3 -7 10
1314 438 2 -0.35 13.305816949980274 63.27507607439599 17.472670208442896 -2 0 0
1312 438 1 0.7 12.803915981588615 62.27829827231756 17.789102556996472 -2 0 0
1313 438 2 -0.35 12.302015013196955 61.28152047023913 18.105534905550044 -2 0 0
533 178 2 -0.35 0.2947960329137952 64.96021477224757 22.79499048569068 -3 -3 1
1414 472 1 0.7 24.013734482059473 59.86178822567826 21.499656231905252 -3 -2 -2
1246 416 1 0.7 10.059477525562945 70.6273287047262 17.776195370847255 0 4 -2
1247 416 2 -0.35 10.968096391216525 70.53833705706842 18.49180157793759 0 4 -2
1248 416 2 -0.35 9.150858659909366 70.71632035238397 17.06058916375692 0 4 -2
1416 472 2 -0.35 23.42479385943731 58.94915104511012 21.092418807706004 -3 -2 -2
1161 387 2 -0.35 9.244036085450283 73.22870311267286 12.2326351941084 0 3 -5
1159 387 1 0.7 9.975121789454443 72.41375564375407 11.849262899460145 0 3 -5
1349 450 2 -0.35 1.168456227975014 66.70309138038597 15.518736940439004 3 3 4
1160 387 2 -0.35 10.706207493458603 71.5988081748353 11.46589060481189 0 3 -5
1212 404 2 -0.35 24.31597335630792 75.48428040250984 24.699732060834933 -5 5 2
1415 472 2 -0.35 24.602675104681634 60.77442540624641 21.906893656104504 -3 -2 -2
501 167 2 -0.35 24.680213244420578 68.34295804729281 12.574351914307634 5 1 2
1348 450 1 0.7 1.8397006679635568 66.90798259713031 14.595129615281492 3 3 4
1350 450 2 -0.35 2.5109451079520997 67.11287381387466 13.671522290123978 3 3 4
615 205 2 -0.35 10.80328967865066 67.76908962778364 24.756615245477448 -2 -6 -2
465 155 2 -0.35 30.470815880425906 72.61165955406851 25.185146516088924 -4 -7 0
463 155 1 0.7 30.812052408176758 73.24320208793515 24.27393212855603 -4 -7 0
464 155 2 -0.35 31.15328893592761 73.87474462180178 23.36271774102314 -4 -7 0
51 17 2 -0.35 35.14902263654555 73.42515234998604 17.58504194012131 -4 0 2
1146 382 2 -0.35 42.89307705213319 53.77738118955591 20.09023032032465 -2 0 -3
1144 382 1 0.7 41.930294180824184 53.32014746907955 19.63242417404189 -2 0 -3
1145 382 2 -0.35 40.96751130951518 52.8629137486032 19.17461802775913 -2 0 -3
438 146 2 -0.35 32.747881926196534 62.51274119321413 14.594436080015198 6 4 4
436 146 1 0.7 33.722228172543716 62.032190289047605 14.187840186364706 6 4 4
437 146 2 -0.35 34.6965744188909 61.55163938488108 13.781244292714215 6 4 4
290 97 2 -0.35 34.55611990178149 64.50398958402263 5.508852114414486 -2 2 1
289 97 1 0.7 35.328267872688095 64.571300300194 6.3719029695278495 -2 2 1
291 97 2 -0.35 36.100415843594696 64.63861101636536 7.234953824641213 -2 2 1
500 167 2 -0.35 26.82951937215309 68.57114748267394 11.731254796014607 5 1 2
499 167 1 0.7 25.754866308286832 68.45705276498337 12.15280335516112 5 1 2
1108 370 1 0.7 46.71258764318083 64.0280088388338 9.479203168076594 5 1 2
1109 370 2 -0.35 45.897545691033784 64.16203993535314 8.664744893266242 5 1 2
1110 370 2 -0.35 47.52762959532788 63.89397774231447 10.293661442886947 5 1 2
375 125 2 -0.35 27.830851484783448 62.21530016656495 19.302285944024877 -1 -4 7
373 125 1 0.7 28.539467845768055 61.78112963626732 18.492990692855166 -1 -4 7
374 125 2 -0.35 29.248084206752665 61.346959105969695 17.68369544168545 -1 -4 7
49 17 1 0.7 34.320983770253505 73.12307066948767 16.830921065050113 -4 0 2
50 17 2 -0.35 33.49294490396146 72.82098898898933 16.076800189978915 -4 0 2
1458 486 2 -0.35 70.75183315842007 74.01165512237456 23.2415957802279 -1 3 -2
1456 486 1 0.7 70.1760943152493 74.22440630309623 24.225903516438702 -1 3 -2
176 59 2 -0.35 55.734649184842965 71.82823247245618 25.414966311246058 0 3 -6
175 59 1 0.7 55.40635216940947 71.04911997414995 24.620734113056876 0 3 -6
177 59 2 -0.35 55.07805515397598 70.27000747584371 23.8265019148677 0 3 -6
1494 498 2 -0.35 61.29453635203679 51.38054744545307 13.170062575261253 3 -2 -4
1492 498 1 0.7 60.60229629776753 51.83662906560755 13.981476934897204 3 -2 -4
1493 498 2 -0.35 59.91005624349827 52.29271068576204 14.792891294533154 3 -2 -4
433 145 1 0.7 66.77598347178046 64.41302303773638 17.54170888676296 -5 0 -2
434 145 2 -0.35 67.79125434014655 64.12748036422363 17.058707390439814 -5 0 -2
435 145 2 -0.35 65.76071260341438 64.69856571124912 18.024710383086113 -5 0 -2
1207 403 1 0.7 51.686269829154455 67.98672296287644 25.10626615218339 -9 1 1
1340 447 2 -0.35 64.16331791029451 61.79554117629047 21.762233522181834 3 -2 0
659 220 2 -0.35 66.28631119348411 59.75368230433509 19.451288833807393 -5 2 0
549 183 2 -0.35 70.1753331799266 74.37570040769083 12.581666480873835 -1 -2 5
1339 447 1 0.7 64.29810638315072 62.9461004117851 21.82261160762888 3 -2 0
658 220 1 0.7 66.50070835113941 60.88000642145832 19.62743605058486 -5 2 0
547 183 1 0.7 70.85483612620386 73.47665772608771 12.856617390415769 -1 -2 5
1341 447 2 -0.35 64.43289485600694 64.09665964727974 21.88298969307592 3 -2 0
660 220 2 -0.35 66.71510550879472 62.006330538581544 19.803583267362324 -5 2 0
944 315 2 -0.35 51.46307567151314 53.21760628986073 3.3108536323047906 2 -5 -2
548 183 2 -0.35 71.53433907248113 72.57761504448459 13.131568299957705 -1 -2 5
943 315 1 0.7 51.1405001536182 52.677246307487984 4.285305336961228 2 -5 -2
945 315 2 -0.35 50.81792463572326 52.13688632511523 5.259757041617664 2 -5 -2
1209 403 2 -0.35 52.71508872714923 67.840761936533 24.590681965151177 -9 1 1
532 178 1 0.7 99.55772964262889 65.11424682917574 21.912603234109973 -4 -3 1
534 178 2 -0.35 98.82066325234398 65.2682788861039 21.030215982529263 -4 -3 1
460 154 1 0.7 80.30803444310888 60.31785982202352 24.215176724794958 -4 5 5
461 154 2 -0.35 79.93230157089882 60.99045961443425 25.082375853017854 -4 5 5
462 154 2 -0.35 80.68376731531896 59.645260029612786 23.34797759657206 -4 5 5
1308 436 2 -0.35 95.48995344205024 69.36651679690273 11.395621372621708 3 5 3
1306 436 1 0.7 94.43468074532704 69.83785829233366 11.296441081050345 3 5 3
1307 436 2 -0.35 93.37940804860386 70.30919978776461 11.197260789478984 3 5 3
76 26 1 0.7 94.2603367286785 58.615539539124406 11.650549516610347 1 8 -4
78 26 2 -0.35 94.45196292485825 59.21935889095589 10.678807991669949 1 8 -4
77 26 2 -0.35 94.06871053249876 58.011720187292916 12.622291041550746 1 8 -4
1287 429 2 -0.35 90.11443281705327 62.70609464136097 5.744552779100172 0 -1 -4
1285 429 1 0.7 90.89110151996998 62.65947058093683 6.604908474668043 0 -1 -4
1286 429 2 -0.35 91.66777022288667 62.6128465205127 7.465264170235913 0 -1 -4
1164 388 2 -0.35 81.05421067228468 74.33455481753201 4.820760668457921 -4 -9 0
1162 388 1 0.7 82.01739590348657 73.75191858112863 5.100777143732354 -4 -9 0
1163 388 2 -0.35 82.98058113468848 73.16928234472527 5.380793619006788 -4 -9 0
684 228 2 -0.35 11.513186645359074 76.20483344755183 16.388994151663788 4 -1 1
683 228 2 -0.35 12.487697550873271 77.66810815521201 14.875205650928649 4 -1 1
682 228 1 0.7 12.000442098116173 76.93647080138192 15.632099901296218 4 -1 1
903 301 2 -0.35 9.033938304237964 76.06768739051527 7.308574951083354 4 -1 -5
671 224 2 -0.35 5.589212459257941 85.46831940291251 21.839061405558173 -6 -4 6
670 224 1 0.7 6.270518054137853 85.43556181638886 22.777330890786295 -6 -4 6
20 7 2 -0.35 0.07109792469335141 87.2295309606353 23.444592992368666 1 4 -1
19 7 1 0.7 1.035233184245294 87.68751988503013 23.898783862400634 1 4 -1
672 224 2 -0.35 6.951823649017765 85.4028042298652 23.715600376014415 -6 -4 6
21 7 2 -0.35 1.9993684437972365 88.14550880942497 24.352974732432603 1 4 -1
624 208 2 -0.35 0.25980073770046763 98.10118101122781 1.7576649970710063 -1 1 -5
623 208 2 -0.35 2.4783619163470614 97.80113432208479 1.1490943101871873 -1 1 -5
901 301 1 0.7 8.995897400285358 75.53847803334067 8.340122500110038 4 -1 -5
902 301 2 -0.35 8.957856496332752 75.00926867616604 9.371670049136721 4 -1 -5
622 208 1 0.7 1.3690813270237645 97.9511576666563 1.4533796536290968 -1 1 -5
27 9 2 -0.35 14.872307647839662 88.42731123136478 9.194385182310048 -2 -5 2
563 188 2 -0.35 18.1275907960004 79.47366744748805 7.791165760736481 -1 -2 2
562 188 1 0.7 19.10426417055592 79.2448362690028 8.373699374520868 -1 -2 2
25 9 1 0.7 15.281154324567567 89.51218677586286 9.155791816606495 -2 -5 2
26 9 2 -0.35 15.690001001295471 90.59706232036093 9.117198450902942 -2 -5 2
564 188 2 -0.35 20.080937545111432 79.01600509051755 8.956232988305253 -1 -2 2
1084 362 1 0.7 23.506594792156122 78.61912538939549 21.219693926942824 0 -2 3
1085 362 2 -0.35 24.410232405820434 77.89760582988531 21.127777723723245 0 -2 3
1086 362 2 -0.35 22.60295717849181 79.34064494890568 21.311610130162403 0 -2 3
1210 404 1 0.7 23.310479221626338 76.06182651940468 24.667762888492053 -5 5 2
1211 404 2 -0.35 22.304985086944757 76.63937263629951 24.635793716149173 -5 5 2
1282 428 1 0.7 31.175386608815135 98.62935901800189 21.497745124614575 6 -5 0
1284 428 2 -0.35 31.129858755178894 98.26397538184972 20.3977351187619 6 -5 0
1283 428 2 -0.35 31.220914462451375 98.99474265415408 22.597755130467245 6 -5 0
150 50 2 -0.35 30.315838344974104 99.16996567952688 13.320421511646252 -1 -1 -12
476 159 2 -0.35 32.58304846713346 96.0820118868066 15.157401164439968 4 -1 3
322 108 1 0.7 35.1121372870757 79.39291266696534 9.383628807058845 -1 -5 0
323 108 2 -0.35 35.86264658203334 78.89569844031587 10.115143544435623 -1 -5 0
475 159 1 0.7 32.59761829370822 96.57327563252635 16.208137883268247 4 -1 3
477 159 2 -0.35 32.61218812028299 97.0645393782461 17.258874602096522 4 -1 3
324 108 2 -0.35 34.36162799211805 79.89012689361482 8.652114069682066 -1 -5 0
430 144 1 0.7 29.861347787684586 89.00827353373455 22.108910490621177 2 -5 -4
431 144 2 -0.35 28.785239985241937 88.80052940272523 21.728865264950166 2 -5 -4
834 278 2 -0.35 43.45883179588068 86.60503567734166 16.411761295736124 1 2 1
832 278 1 0.7 42.89946306468383 87.43450724337424 16.99885885466504 1 2 1
833 278 2 -0.35 42.34009433348698 88.26397880940682 17.585956413593955 1 2 1
1019 340 2 -0.35 30.476107477769474 83.06707542457121 14.118845538657053 6 8 4
1018 340 1 0.7 30.47789994749164 84.18868332084895 13.822885213510705 6 8 4
1020 340 2 -0.35 30.479692417213805 85.31029121712669 13.52692488836436 6 8 4
740 247 2 -0.35 29.870936194004727 82.56992210575307 1.7629567449864838 -1 0 2
739 247 1 0.7 29.346227590233948 83.46262829148118 2.2857918500553045 -1 0 2
741 247 2 -0.35 28.821518986463165 84.3553344772093 2.808626955124125 -1 0 2
432 144 2 -0.35 30.937455590127236 89.21601766474387 22.48895571629219 2 -5 -4
890 297 2 -0.35 41.00553286383409 83.45282480730579 8.276102612294913 -1 -2 5
889 297 1 0.7 40.43840226753482 84.01860697387993 9.115062341201819 -1 -2 5
891 297 2 -0.35 39.87127167123555 84.58438914045406 9.954022070108724 -1 -2 5
222 74 2 -0.35 26.234423725060456 80.27734282173671 20.727541261785312 2 -1 -4
220 74 1 0.7 26.34952231009368 81.29571709856023 20.184157283343644 2 -1 -4
221 74 2 -0.35 26.464620895126902 82.31409137538375 19.64077330490198 2 -1 -4
1149 383 2 -0.35 53.77220140391523 98.3918801376445 4.914069049640368 -4 2 -3
864 288 2 -0.35 50.7040751623393 81.0277381904942 2.812136925030958 -1 2 5
862 288 1 0.7 51.0709693933057 80.97834022205583 3.911476937946728 -1 2 5
863 288 2 -0.35 51.437863624272104 80.92894225361746 5.010816950862498 -1 2 5
1061 354 2 -0.35 63.64576626460796 89.1530152412464 10.846976669355826 -4 2 -4
1060 354 1 0.7 63.104880146867664 88.41208525662165 11.55695199675676 -4 2 -4
1062 354 2 -0.35 62.56399402912738 87.6711552719969 12.266927324157695 -4 2 -4
835 279 1 0.7 63.72526112942174 88.62504001214914 7.713089786833963 -1 -2 0
836 279 2 -0.35 62.566215165103564 88.64844990971281 7.672292369078723 -1 -2 0
837 279 2 -0.35 64.88430709373992 88.60163011458548 7.753887204589205 -1 -2 0
1157 386 2 -0.35 73.90292492453385 87.22407434267537 5.454057905279453 -3 3 2
1156 386 1 0.7 73.9481081801991 86.29375063127695 4.76264177485131 -3 3 2
103 35 1 0.7 74.09832842410668 92.41462672806935 23.53040895122576 -2 -1 0
104 35 2 -0.35 75.2422444435589 92.51322943669923 23.695737854602417 -2 -1 0
1158 386 2 -0.35 73.99329143586436 85.36342691987853 4.071225644423167 -3 3 2
105 35 2 -0.35 72.95441240465445 92.31602401943948 23.365080047849098 -2 -1 0
234 78 2 -0.35 86.76262821399457 92.53699497774163 15.113215362192634 -6 6 -4
233 78 2 -0.35 88.59573063478071 93.38678598083489 16.253386737892466 -6 6 -4
232 78 1 0.7 87.67917942438764 92.96189047928826 15.68330105004255 -6 6 -4
404 135 2 -0.35 98.04654954164175 79.74780270826419 6.539398168261264 0 4 0
403 135 1 0.7 97.79816164217347 79.27068175312725 7.567142808512825 0 4 0
405 135 2 -0.35 97.54977374270517 78.79356079799031 8.594887448764387 0 4 0
758 253 2 -0.35 93.85144758645774 85.03576992315313 25.736325293642206 -1 0 1
230 77 2 -0.35 18.509518767713157 13.102273591853047 25.129886884912047 -2 2 -4
1260 420 2 -0.35 17.331059320850684 7.695171404809237 26.84209314726414 -5 5 1
1259 420 2 -0.35 16.399053563404756 9.491180722681383 27.97704503972626 -5 5 1
1258 420 1 0.7 16.86505644212772 8.593176063745311 27.4095690934952 -5 5 1
1265 422 2 -0.35 14.060219911886447 1.9283845869177654 31.787383949862345 0 -3 -4
1264 422 1 0.7 15.202651952637368 2.109640111363565 31.874535927030006 0 -3 -4
1266 422 2 -0.35 16.34508399338829 2.290895635809365 31.96168790419767 0 -3 -4
605 202 2 -0.35 7.988099822142629 21.46810388411854 38.06140258472029 -1 3 -4
604 202 1 0.7 8.105187370573283 20.474709821270807 37.473985576198984 -1 3 -4
1102 368 1 0.7 7.6906275850578485 24.660938611615315 31.311098556921333 4 1 1
1103 368 2 -0.35 7.957731264226577 24.636643304558554 30.18253071995694 4 1 1
789 263 2 -0.35 5.732069518967609 17.422606633678114 37.844974259275 8 1 2
788 263 2 -0.35 5.821852574495028 16.57159131302875 35.688562441702985 8 1 2
787 263 1 0.7 5.776961046731318 16.997098973353435 36.766768350488995 8 1 2
779 260 2 -0.35 11.903971307794997 15.564541750665775 36.99184633810779 1 -1 -2
778 260 1 0.7 10.779562275121297 15.849673091201085 36.993954865244596 1 -1 -2
780 260 2 -0.35 9.6551532424476 16.134804431736395 36.996063392381394 1 -1 -2
606 202 2 -0.35 8.222274919003935 19.481315758423076 36.886568567677685 -1 3 -4
1270 424 1 0.7 9.368755687125825 10.29097446560778 40.93973983106584 6 2 -4
1272 424 2 -0.35 9.919654300506409 11.079867653758226 40.2918522980278 6 2 -4
1271 424 2 -0.35 8.817857073745241 9.502081277457332 41.58762736410389 6 2 -4
920 307 2 -0.35 9.112861314934657 21.949507230356293 45.83904053948865 4 -1 -3
919 307 1 0.7 9.84106982783661 21.120648183116657 46.19723747072527 4 -1 -3
921 307 2 -0.35 10.569278340738565 20.29178913587702 46.55543440196189 4 -1 -3