LAMMPS (29 Aug 2024 - Update 1)
  using 1 OpenMP thread(s) per MPI task
package gpu 1 gpuID 0
# GCMC for CO2 molecular fluid, rigid/small/nvt dynamics
# Rigid CO2 TraPPE model
# [Potoff and J.I. Siepmann, Vapor-liquid equilibria of
# mixtures containing alkanes, carbon dioxide and
# nitrogen AIChE J., 47,1676-1682 (2001)].

# global model settings

units           real
atom_style      full
boundary        p p p
pair_style      lj/cut/coul/long  12
pair_modify     mix arithmetic shift yes
kspace_style    pppm 1.0e-4
bond_style      harmonic
angle_style     harmonic
neigh_modify    one 4000

# box, start molecules on simple cubic lattice
region          mbox block 0 ${lbox} 0 ${lbox} 0 ${lbox} units box
region          mbox block 0 100 0 ${lbox} 0 ${lbox} units box
region          mbox block 0 100 0 100 0 ${lbox} units box
region          mbox block 0 100 0 100 0 100 units box
create_box      2 mbox                                       bond/types 1                                angle/types 1                               extra/bond/per/atom 2                       extra/angle/per/atom 1                      extra/special/per/atom 2
Created orthogonal box = (0 0 0) to (100 100 100)
  1 by 1 by 1 MPI processor grid
molecule        co2mol ../CO2.txt
Read molecule template co2mol:
# CO2 molecule file. TraPPE model.
  1 molecules
  0 fragments
  3 atoms with max type 2
  2 bonds with max type 1
  1 angles with max type 1
  0 dihedrals with max type 0
  0 impropers with max type 0
create_atoms   	0 random ${nmols} 34578 mbox mol co2mol 464563 overlap 1.2
create_atoms   	0 random 500 34578 mbox mol co2mol 464563 overlap 1.2
Created 1500 atoms
  using lattice units in orthogonal box = (0 0 0) to (100 100 100)
  create_atoms CPU = 0.012 seconds

# rigid CO2 TraPPE model

pair_coeff      1   1  0.053649   2.800
pair_coeff      2   2  0.156973   3.050
bond_coeff      1       0       1.16
angle_coeff     1       0       180

# masses

mass 1 12.0107
mass 2 15.9994

write_data init_conf.data  pair ij
System init for write_data ...
PPPM initialization ...
  using 12-bit tables for long-range coulomb (src/kspace.cpp:342)
  G vector (1/distance) = 0.17553521
  grid = 24 24 24
  stencil order = 5
  estimated absolute RMS force accuracy = 0.030437558
  estimated relative force accuracy = 9.1661803e-05
  using double precision FFTW3
  3d grid and FFT values/proc = 24389 13824
Generated 1 of 1 mixed pair_coeff terms from arithmetic mixing rule

# MD settings

group           co2 type 1 2
1500 atoms in group co2
velocity       	all create 300 54654
timestep        0.25

# rigid constraints with thermostat
fix             myrigidnvt co2 rigid/nvt molecule temp 300 300 $(100*dt)
fix             myrigidnvt co2 rigid/nvt molecule temp 300 300 25
  500 rigid bodies with 1500 atoms

thermo 1000
thermo_style custom step temp density press ke pe etotal


variable    mvol equal vol
variable    mden equal density
variable	mtmp equal temp
variable    mpre equal press

fix mydat all ave/time 1 4000 4000 v_mtmp v_mden v_mpre file statistics.dat ## every 1ps

run 4000000 ## 1ns

CITE-CITE-CITE-CITE-CITE-CITE-CITE-CITE-CITE-CITE-CITE-CITE-CITE

Your simulation uses code contributions which should be cited:

- GPU package (short-range, long-range and three-body potentials): doi:10.1016/j.cpc.2010.12.021, doi:10.1016/j.cpc.2011.10.012, doi:10.1016/j.cpc.2013.08.002, doi:10.1016/j.commatsci.2014.10.068, doi:10.1016/j.cpc.2016.10.020, doi:10.3233/APC200086

@Article{Brown11,
 author = {W. M. Brown and P. Wang and S. J. Plimpton and A. N. Tharrington},
 title = {Implementing Molecular Dynamics on Hybrid High Performance Computers---Short Range Forces},
 journal = {Comput.\ Phys.\ Commun.},
 year =    2011,
 volume =  182,
 pages =   {898--911},
 doi =     {10.1016/j.cpc.2010.12.021}
}

@Article{Brown12,
 author = {W. M. Brown and A. Kohlmeyer and S. J. Plimpton and A. N. Tharrington},
 title = {Implementing Molecular Dynamics on Hybrid High Performance Computers - Particle-Particle Particle-Mesh},
 journal = {Comput.\ Phys.\ Commun.},
 year =    2012,
 volume =  183,
 doi =     {10.1016/j.cpc.2011.10.012},
 pages =   {449--459}
}

@Article{Brown13,
 author = {W. M. Brown and Y. Masako},
 title = {Implementing Molecular Dynamics on Hybrid High Performance Computers---Three-Body Potentials},
 journal = {Comput.\ Phys.\ Commun.},
 year =    2013,
 volume =  184,
 pages =   {2785--2793},
 doi =     {10.1016/j.cpc.2013.08.002},
}

@Article{Trung15,
 author = {T. D. Nguyen and S. J. Plimpton},
 title = {Accelerating Dissipative Particle Dynamics Simulations for Soft Matter Systems},
 journal = {Comput.\ Mater.\ Sci.},
 year =    2015,
 doi =     {10.1016/j.commatsci.2014.10.068},
 volume =  100,
 pages =   {173--180}
}

@Article{Trung17,
 author = {T. D. Nguyen},
 title = {{GPU}-Accelerated {T}ersoff Potentials for Massively Parallel
    Molecular Dynamics Simulations},
 journal = {Comput.\ Phys.\ Commun.},
 year =    2017,
 doi =     {10.1016/j.cpc.2016.10.020},
 volume =  212,
 pages =   {113--122}
}

@inproceedings{Nikolskiy19,
 author = {V. Nikolskiy and V. Stegailov},
 title = {{GPU} Acceleration of Four-Site Water Models in {LAMMPS}},
 booktitle = {Proceedings of the International Conference on Parallel
    Computing (ParCo 2019), Prague, Czech Republic},
 doi =     {10.3233/APC200086},
 year =    2019
}

CITE-CITE-CITE-CITE-CITE-CITE-CITE-CITE-CITE-CITE-CITE-CITE-CITE

PPPM initialization ...
  using 12-bit tables for long-range coulomb (src/kspace.cpp:342)
  G vector (1/distance) = 0.17553521
  grid = 24 24 24
  stencil order = 5
  estimated absolute RMS force accuracy = 0.030437558
  estimated relative force accuracy = 9.1661803e-05
  using double precision FFTW3
  3d grid and FFT values/proc = 24389 13824
Generated 1 of 1 mixed pair_coeff terms from arithmetic mixing rule
Per MPI rank memory allocation (min/avg/max) = 9.615 | 9.615 | 9.615 Mbytes
   Step          Temp         Density         Press          KinEng         PotEng         TotEng    
         0   305.66621      0.036539744   -1269.9347      758.3663       15091.722      15850.088    
      1000   317.14149      0.036539744    12.96427       786.83677     -46.282744      740.55403    
      2000   306.08885      0.036539744    23.423467      759.41488     -65.70679       693.70809    
      3000   286.97859      0.036539744    18.549938      712.00179     -74.912921      637.08887    
      4000   303.99625      0.036539744    17.838181      754.22307     -84.219181      670.00389    
      5000   293.62379      0.036539744    24.578989      728.48871     -83.530319      644.9584     
      6000   297.91014      0.036539744    12.535279      739.12327     -100.26913      638.85414    
      7000   293.07984      0.036539744    18.679661      727.13915     -96.397315      630.74184    
      8000   302.85963      0.036539744    16.767638      751.40308     -107.95891      643.44417    
      9000   291.03276      0.036539744    19.386575      722.06031     -113.37266      608.68765    
     10000   300.49214      0.036539744    21.664806      745.52928     -112.25564      633.27363    
     11000   311.67715      0.036539744    17.585871      773.27959     -117.55511      655.72448    
     12000   307.86653      0.036539744    21.054315      763.82536     -119.39932      644.42604    
     13000   292.76775      0.036539744    17.795284      726.36485     -127.32373      599.04113    
     14000   300.04321      0.036539744    20.017499      744.41547     -131.30676      613.10871    
     15000   301.192        0.036539744    16.405728      747.26564     -123.09939      624.16625    
     16000   301.41111      0.036539744    22.914397      747.80928     -128.56466      619.24462    
     17000   309.27647      0.036539744    17.879131      767.32344     -142.28815      625.03529    
     18000   303.2742       0.036539744    23.350038      752.43166     -140.12116      612.3105     
     19000   319.48333      0.036539744    23.482024      792.64696     -146.52005      646.1269     
     20000   293.39895      0.036539744    22.349242      727.93088     -134.68731      593.24357    
     21000   293.47387      0.036539744    12.232957      728.11676     -158.16948      569.94728    
     22000   315.14237      0.036539744    21.692864      781.8769      -156.92483      624.95207    
     23000   297.32593      0.036539744    19.688131      737.67384     -149.31927      588.35457    
     24000   288.64943      0.036539744    17.954329      716.14719     -150.48258      565.66461    
     25000   307.03427      0.036539744    16.083383      761.76048     -155.63587      606.12461    
     26000   308.58378      0.036539744    16.63929       765.60486     -153.42695      612.17791    
     27000   298.25723      0.036539744    14.486186      739.98441     -160.13919      579.84522    
     28000   281.36407      0.036539744    17.194334      698.07202     -166.15429      531.91773    
     29000   301.0954       0.036539744    21.837295      747.02597     -157.21016      589.81582    
     30000   304.11726      0.036539744    14.440608      754.52331     -161.51599      593.00732    
     31000   307.29333      0.036539744    12.083748      762.40323     -158.76217      603.64106    
     32000   296.68578      0.036539744    21.341545      736.0856      -169.66707      566.41852    
     33000   297.94067      0.036539744    8.3296737      739.19901     -170.50806      568.69095    
     34000   311.29705      0.036539744    18.352133      772.33656     -175.13084      597.20571    
     35000   295.43974      0.036539744    19.288807      732.99414     -171.66261      561.33153    
     36000   291.60062      0.036539744    15.8484        723.46919     -175.45866      548.01052    
     37000   289.94086      0.036539744    14.7046        719.35126     -174.52436      544.8269     
     38000   306.64671      0.036539744    19.455381      760.79894     -167.55121      593.24773    
     39000   295.13221      0.036539744    18.146604      732.23116     -162.28191      569.94925    
     40000   286.86187      0.036539744    22.433324      711.7122      -155.65489      556.05731    
     41000   293.02686      0.036539744    20.556131      727.00771     -156.6071       570.40061    
     42000   303.1873       0.036539744    9.748731       752.21605     -163.78082      588.43523    
     43000   288.50296      0.036539744    12.961519      715.7838      -174.75113      541.03268    
     44000   313.22253      0.036539744    20.058152      777.11372     -184.71276      592.40097    
     45000   292.1447       0.036539744    17.916204      724.81905     -178.42818      546.39087    
     46000   299.56196      0.036539744    18.805499      743.22149     -187.05136      556.17012    
     47000   302.79441      0.036539744    15.973188      751.24128     -183.5659       567.67539    
     48000   311.48153      0.036539744    13.910977      772.79425     -179.59362      593.20064    
     49000   291.19217      0.036539744    14.284909      722.45579     -185.88947      536.56632    
     50000   299.18507      0.036539744    10.132144      742.28641     -179.56078      562.72563    
     51000   313.43613      0.036539744    3.4940446      777.64367     -179.07339      598.57028    
     52000   306.17614      0.036539744    22.910271      759.63143     -179.70112      579.93031    
     53000   292.06844      0.036539744    25.249858      724.62986     -168.3687       556.26116    
     54000   293.97282      0.036539744   -7.9835879      729.35466     -164.62359      564.73107    
     55000   317.53042      0.036539744    10.891454      787.80171     -172.40524      615.39647    
     56000   301.0498       0.036539744    31.790526      746.91286     -169.71922      577.19364    
     57000   284.30451      0.036539744    12.758849      705.36732     -161.50669      543.86063    
     58000   302.22453      0.036539744    14.792778      749.82739     -166.2813       583.54609    
     59000   304.05858      0.036539744    1.9118662      754.37771     -167.44672      586.93099    
     60000   305.1639       0.036539744    41.855045      757.12004     -166.91351      590.20653    
     61000   296.98679      0.036539744    14.4004        736.83242     -168.14973      568.68269    
     62000   300.75113      0.036539744   -31.250858      746.17185     -165.84363      580.32822    
     63000   317.90166      0.036539744    14.896703      788.72277     -159.53728      629.18549    
     64000   314.82265      0.036539744    38.157062      781.08366     -165.32208      615.76159    
     65000   292.71681      0.036539744    30.75207       726.23848     -170.10007      556.13841    
     66000   294.5499       0.036539744    2.8920154      730.78643     -167.82394      562.96249    
     67000   308.68808      0.036539744    21.219825      765.86363     -165.62147      600.24217    
     68000   281.74049      0.036539744    17.564806      699.00593     -166.67356      532.33237    
     69000   299.2019       0.036539744    19.537628      742.32815     -162.96869      579.35946    
     70000   298.96097      0.036539744    16.567542      741.73041     -177.51401      564.21641    
     71000   303.15214      0.036539744    20.598708      752.12881     -169.50959      582.61922    
     72000   289.67505      0.036539744    17.214329      718.69179     -169.11043      549.58136    
     73000   307.90249      0.036539744    19.078365      763.91456     -174.08176      589.83279    
     74000   297.91608      0.036539744    18.478286      739.13802     -170.76369      568.37433    
     75000   297.28145      0.036539744    15.400178      737.56347     -168.37332      569.19015    
     76000   297.23648      0.036539744    10.721033      737.45191     -170.38163      567.07028    
     77000   302.57674      0.036539744    17.042438      750.70122     -172.23679      578.46443    
     78000   317.2877       0.036539744    16.431936      787.19952     -165.16564      622.03388    
     79000   299.08314      0.036539744    17.009422      742.03352     -164.56024      577.47327    
     80000   295.71029      0.036539744    17.729772      733.66537     -163.98287      569.68249    
     81000   299.10392      0.036539744    17.858638      742.08507     -161.96824      580.11684    
     82000   300.01333      0.036539744    11.411135      744.34133     -164.6917       579.64963    
     83000   301.03022      0.036539744    14.267294      746.86427     -166.44738      580.41689    
     84000   293.83865      0.036539744    18.683925      729.02178     -175.67137      553.35041    
     85000   300.16785      0.036539744    23.847926      744.72472     -169.93556      574.78916    
     86000   301.77049      0.036539744    6.6450216      748.70091     -164.75003      583.95088    
     87000   306.16823      0.036539744    12.961491      759.61182     -161.33552      598.2763     
     88000   282.01416      0.036539744    6.9832512      699.6849      -151.27049      548.4144     
     89000   294.40413      0.036539744    17.276427      730.42475     -153.84551      576.57924    
     90000   298.74594      0.036539744    28.945767      741.1969      -153.11201      588.08489    
     91000   314.13343      0.036539744    8.3285089      779.37369     -149.50239      629.8713     
     92000   294.63867      0.036539744    15.791597      731.00665     -145.34147      585.66519    
     93000   296.5767       0.036539744    19.439456      735.81497     -136.57635      599.23862    
     94000   320.55527      0.036539744    21.18789       795.30645     -146.557        648.74946    
     95000   284.62833      0.036539744    10.812805      706.17074     -139.88597      566.28477    
     96000   295.86964      0.036539744    27.235522      734.06074     -137.06536      596.99538    
     97000   314.44145      0.036539744    27.393125      780.13789     -142.98634      637.15155    
     98000   302.22588      0.036539744    14.446462      749.83073     -134.41022      615.42051    
     99000   285.27586      0.036539744    18.716824      707.77728     -130.95825      576.81903    
    100000   291.18597      0.036539744    14.695837      722.44041     -137.19384      585.24658    
    101000   302.90163      0.036539744    18.392091      751.50729     -131.92243      619.58487    
    102000   319.6719       0.036539744    30.065822      793.11479     -132.72864      660.38616    
    103000   300.93818      0.036539744    17.156835      746.63593     -128.40311      618.23281    
    104000   298.50443      0.036539744    23.190463      740.59773     -129.90557      610.69216    
    105000   286.40007      0.036539744    21.132636      710.56647     -122.1946       588.37186    
    106000   307.56347      0.036539744    17.915046      763.07346     -125.81275      637.26071    
    107000   306.5552       0.036539744    21.886543      760.5719      -126.03629      634.53561    
    108000   289.02798      0.036539744    13.836865      717.08639     -128.58661      588.49978    
    109000   281.19003      0.036539744    16.523206      697.64021     -130.26261      567.37761    
    110000   302.07584      0.036539744    19.003289      749.45849     -126.8333       622.62519    
    111000   296.45905      0.036539744    20.670051      735.52308     -125.04795      610.47513    
    112000   295.62101      0.036539744    16.838249      733.44389     -124.00853      609.43536    
    113000   308.49757      0.036539744    16.720329      765.39098     -131.18995      634.20103    
    114000   307.85347      0.036539744    23.048556      763.79294     -134.04475      629.74819    
    115000   289.66659      0.036539744    17.121957      718.67079     -138.32245      580.34834    
    116000   307.69446      0.036539744    16.081453      763.39843     -138.1872       625.21123    
    117000   294.60249      0.036539744    11.96364       730.9169      -133.01458      597.90232    
    118000   292.72751      0.036539744    12.840372      726.26503     -133.17185      593.09318    
    119000   288.34936      0.036539744    17.691005      715.40272     -132.18498      583.21774    
    120000   308.50435      0.036539744    19.327352      765.40781     -127.97906      637.42875    
    121000   300.97187      0.036539744    10.162699      746.7195      -130.37352      616.34598    
    122000   302.75165      0.036539744    19.20955       751.13519     -123.10894      628.02625    
    123000   301.15588      0.036539744    28.851849      747.17605     -121.4903       625.68575    
    124000   303.24901      0.036539744    13.866248      752.36916     -125.00521      627.36395    
    125000   287.1801       0.036539744    12.803072      712.50174     -128.77811      583.72363    
    126000   299.01052      0.036539744    19.61117       741.85333     -135.53862      606.31471    
    127000   308.6919       0.036539744    14.932668      765.87312     -136.98263      628.89049    
    128000   306.73279      0.036539744    18.849992      761.0125      -140.4871       620.5254     
    129000   293.60814      0.036539744    17.276848      728.44989     -137.40985      591.04004    
    130000   302.3529       0.036539744    17.12683       750.14588     -132.81442      617.33146    
    131000   316.44078      0.036539744    22.470809      785.0983      -128.28006      656.81823    
    132000   304.54669      0.036539744    17.792093      755.58874     -124.0852       631.50354    
    133000   292.55209      0.036539744    20.47515       725.82979     -120.72862      605.10117    
    134000   295.22962      0.036539744    15.164181      732.47281     -116.87201      615.6008     
    135000   285.87936      0.036539744   -2.8747826      709.27458     -116.84325      592.43133    
    136000   301.94111      0.036539744    14.64421       749.12423     -115.36736      633.75687    
    137000   316.24557      0.036539744    31.650923      784.61397     -105.93704      678.67693    
    138000   281.9755       0.036539744    16.893552      699.58899     -100.55625      599.03274    
    139000   291.78954      0.036539744    5.15758        723.93788     -107.46262      616.47526    
    140000   311.95092      0.036539744    32.786754      773.95883     -106.26508      667.69375    
    141000   303.6905       0.036539744    16.766374      753.46451     -107.72637      645.73814    
    142000   292.67048      0.036539744    16.406352      726.12353     -106.37338      619.75015    
    143000   302.35167      0.036539744    11.854633      750.14283     -106.51089      643.63194    
    144000   292.78271      0.036539744    25.474547      726.40198     -97.818747      628.58324    
    145000   290.66978      0.036539744    14.518811      721.15974     -99.777238      621.3825     
    146000   290.62855      0.036539744    3.4166498      721.05744     -98.559464      622.49798    
    147000   318.90877      0.036539744    10.012716      791.22145     -94.063367      697.15808    
    148000   301.80176      0.036539744    12.982134      748.77848     -103.15622      645.62226    
    149000   303.75341      0.036539744    20.081122      753.62059     -100.91104      652.70956    
    150000   304.31014      0.036539744    19.671121      755.00185     -97.4           657.60185    
    151000   288.62476      0.036539744    11.436964      716.08599     -100.39084      615.69515    
    152000   307.45         0.036539744    9.0571045      762.79192     -103.68657      659.10535    
    153000   309.19583      0.036539744    16.97498       767.12338     -101.20709      665.91629    
    154000   289.93219      0.036539744    31.946866      719.32976     -93.953786      625.37598    
    155000   285.66396      0.036539744    23.658628      708.74017     -88.606503      620.13367    
    156000   294.04196      0.036539744    5.8846266      729.52621     -96.483779      633.04243    
    157000   306.93198      0.036539744    15.380011      761.50671     -100.84585      660.66086    
    158000   295.58363      0.036539744    21.878963      733.35112     -99.434514      633.91661    
    159000   313.35157      0.036539744    21.024485      777.43389     -98.539867      678.89403    
    160000   286.55778      0.036539744    18.390387      710.95775     -101.29457      609.66318    
    161000   297.77262      0.036539744    10.852575      738.78208     -106.55162      632.23046    
    162000   302.69541      0.036539744    16.291591      750.99566     -104.78863      646.20703    
    163000   298.051        0.036539744    29.579373      739.47275     -99.537022      639.93573    
    164000   290.271        0.036539744    19.557604      720.17035     -101.46118      618.70918    
    165000   300.38625      0.036539744    3.6128162      745.26657     -104.37313      640.89344    
    166000   312.95849      0.036539744    8.5996764      776.45865     -105.01114      671.44751    
    167000   293.94846      0.036539744    29.879085      729.29423     -98.261912      631.03232    
    168000   293.57259      0.036539744    21.505391      728.3617      -102.8887       625.473      
    169000   302.31263      0.036539744    16.922873      750.04597     -89.226555      660.81941    
    170000   302.71339      0.036539744    15.091845      751.04026     -93.250876      657.78938    
    171000   299.44141      0.036539744    18.124954      742.92238     -95.28797       647.63441    
    172000   302.92806      0.036539744    17.421889      751.57287     -101.48561      650.08726    
    173000   317.30275      0.036539744    18.345044      787.23686     -104.96342      682.27345    
    174000   307.02286      0.036539744    8.5071019      761.73218     -107.95066      653.78151    
    175000   289.30395      0.036539744    17.901088      717.77107     -106.23383      611.53724    
    176000   305.48417      0.036539744    20.057905      757.91465     -101.60766      656.30699    
    177000   285.40011      0.036539744    13.825836      708.08555     -92.551965      615.53358    
    178000   294.99996      0.036539744    16.894885      731.90303     -88.67766       643.22537    
    179000   302.90437      0.036539744    24.960659      751.51409     -94.303005      657.21109    
    180000   296.84367      0.036539744    23.813721      736.47733     -89.534935      646.94239    
    181000   309.17988      0.036539744    19.283909      767.08379     -87.793549      679.29024    
    182000   311.15701      0.036539744    15.125561      771.98912     -88.703744      683.28537    
    183000   287.59928      0.036539744    22.185588      713.54173     -87.919242      625.62249    
    184000   300.90148      0.036539744    15.816276      746.54486     -93.044065      653.5008     
    185000   298.25804      0.036539744    11.569216      739.98642     -83.974723      656.0117     
    186000   289.75394      0.036539744    26.965825      718.88751     -79.800879      639.08663    
    187000   309.36256      0.036539744    17.467911      767.53705     -87.136922      680.40012    
    188000   303.11641      0.036539744    1.8346026      752.04016     -79.457678      672.58248    
    189000   293.93437      0.036539744    10.082981      729.25928     -78.848954      650.41032    
    190000   293.94333      0.036539744    21.247313      729.28151     -91.233319      638.0482     
    191000   311.7595       0.036539744    18.592985      773.48391     -87.203362      686.28055    
    192000   300.23292      0.036539744    13.092084      744.88616     -87.202212      657.68395    
    193000   298.19572      0.036539744    12.758607      739.8318      -82.297652      657.53415    
    194000   291.21912      0.036539744    18.214987      722.52265     -75.964551      646.5581     
    195000   308.68758      0.036539744    21.524844      765.8624      -81.291262      684.57114    
    196000   288.06828      0.036539744    10.330356      714.70534     -75.944968      638.76038    
    197000   295.82078      0.036539744    21.882791      733.93951     -75.948982      657.99053    
    198000   315.1147       0.036539744    25.357297      781.80825     -77.927374      703.88088    
    199000   313.40106      0.036539744    20.90718       777.55666     -78.712187      698.84448    
    200000   298.22187      0.036539744    15.713258      739.89669     -79.233118      660.66357    
    201000   294.97176      0.036539744    18.15302       731.83306     -76.227808      655.60525    
    202000   307.8098       0.036539744    25.190334      763.68459     -80.566         683.11859    
    203000   302.80206      0.036539744    12.016089      751.26026     -81.168222      670.09204    
    204000   298.24333      0.036539744    17.94925       739.94992     -76.883509      663.06641    
    205000   297.25841      0.036539744    21.124788      737.50632     -74.67091       662.83541    
    206000   302.18794      0.036539744    25.145907      749.73662     -82.644162      667.09246    
    207000   304.7781       0.036539744    14.303832      756.16287     -84.654821      671.50805    
    208000   287.02138      0.036539744    16.924121      712.10795     -82.847875      629.26007    
    209000   302.00377      0.036539744    17.656499      749.27968     -83.305823      665.97385    
    210000   311.59386      0.036539744    19.25457       773.07297     -82.534569      690.5384     
    211000   296.28625      0.036539744    9.1072268      735.09435     -78.481778      656.61257    
    212000   288.22221      0.036539744    18.923167      715.08726     -80.283277      634.80398    
    213000   299.57556      0.036539744    25.814479      743.25523     -70.372322      672.8829     
    214000   329.06709      0.036539744    19.608212      816.42452     -78.095579      738.32894    
    215000   301.67834      0.036539744    10.022831      748.47228     -74.109494      674.36278    
    216000   298.32345      0.036539744    16.95243       740.14869     -75.486782      664.66191    
    217000   297.19676      0.036539744    25.956412      737.35336     -74.3595        662.99386    
    218000   311.80571      0.036539744    17.73278       773.59856     -80.39345       693.20511    
    219000   301.98222      0.036539744    4.5024948      749.22622     -76.38903       672.83719    
    220000   283.40203      0.036539744    22.526899      703.12824     -79.153556      623.97468    
    221000   302.00765      0.036539744    19.766368      749.28931     -75.676412      673.6129     
    222000   314.44247      0.036539744    13.435003      780.14043     -73.12731       707.01312    
    223000   293.76011      0.036539744    21.133389      728.82694     -73.613733      655.21321    
    224000   307.86663      0.036539744    26.201467      763.8256      -83.460395      680.3652     
    225000   300.70671      0.036539744    14.438912      746.06163     -77.160473      668.90116    
    226000   284.82486      0.036539744    13.724976      706.65833     -83.103127      623.55521    
    227000   310.89186      0.036539744    29.596526      771.33128     -75.161272      696.17001    
    228000   295.52771      0.036539744    16.985537      733.21239     -71.559813      661.65257    
    229000   290.57546      0.036539744    15.578339      720.92572     -70.986602      649.93912    
    230000   311.16555      0.036539744    21.960855      772.01032     -73.662061      698.34826    
    231000   301.93493      0.036539744    17.799975      749.10889     -67.204199      681.90469    
    232000   288.90541      0.036539744    16.447997      716.78229     -75.332311      641.44998    
    233000   303.66957      0.036539744    20.202718      753.41258     -71.543557      681.86902    
    234000   302.49019      0.036539744    25.344095      750.48649     -65.686814      684.79968    
    235000   303.13718      0.036539744    14.86196       752.09169     -68.589904      683.50179    
    236000   299.2402       0.036539744    13.886873      742.4232      -71.808323      670.61487    
    237000   305.89622      0.036539744    27.95945       758.93695     -65.92062       693.01633    
    238000   301.94175      0.036539744    13.889331      749.12579     -73.553837      675.57196    
    239000   288.44131      0.036539744    24.662491      715.63084     -77.231957      638.39888    
    240000   314.53527      0.036539744    24.099259      780.37067     -74.224022      706.14665    
    241000   315.58304      0.036539744    19.087844      782.97021     -67.598077      715.37214    
    242000   296.81876      0.036539744    19.495538      736.41553     -58.19162       678.22391    
    243000   298.26545      0.036539744    22.623008      740.0048      -61.130401      678.8744     
    244000   310.78722      0.036539744    19.210053      771.07166     -61.711637      709.36002    
    245000   299.11089      0.036539744    13.425011      742.10237     -61.55705       680.54532    
    246000   291.56716      0.036539744    18.329328      723.38615     -61.818714      661.56744    
    247000   319.65996      0.036539744    20.352001      793.08516     -63.102723      729.98244    
    248000   304.02869      0.036539744    19.870561      754.30357     -62.534822      691.76875    
    249000   302.61277      0.036539744    19.031284      750.79063     -57.049398      693.74123    
    250000   294.14539      0.036539744    19.034537      729.78282     -64.900953      664.88186    
    251000   305.39667      0.036539744    27.302676      757.69756     -65.721235      691.97632    
    252000   294.11138      0.036539744    14.532927      729.69845     -74.678197      655.02025    
    253000   291.40893      0.036539744    16.64222       722.9936      -73.230988      649.76261    
    254000   310.86933      0.036539744    23.771774      771.27537     -76.665494      694.60988    
    255000   289.57775      0.036539744    16.779618      718.45037     -70.73534       647.71503    
    256000   290.7175       0.036539744    17.439833      721.27812     -71.092422      650.1857     
    257000   312.64999      0.036539744    20.508935      775.69325     -63.359168      712.33409    
    258000   308.55824      0.036539744    25.651376      765.54149     -62.091017      703.45047    
    259000   301.52591      0.036539744    15.734416      748.09409     -57.560981      690.5331     
    260000   299.98872      0.036539744    26.743545      744.28027     -71.797719      672.48256    
    261000   307.56176      0.036539744    20.770711      763.06921     -64.676204      698.39301    
    262000   298.02771      0.036539744    17.616748      739.41495     -61.834797      677.58016    
    263000   283.01856      0.036539744    7.6901385      702.17684     -69.761443      632.4154     
    264000   320.5186       0.036539744    21.731255      795.21548     -64.744325      730.47116    
    265000   307.18129      0.036539744    17.598531      762.12526     -64.49365       697.63161    
    266000   283.64885      0.036539744    18.650995      703.74061     -65.247227      638.49338    
    267000   293.37638      0.036539744    16.013163      727.87489     -62.275008      665.59988    
    268000   308.90069      0.036539744    12.422891      766.39113     -57.257568      709.13357    
    269000   301.92589      0.036539744    26.360697      749.08645     -55.750989      693.33547    
    270000   291.37654      0.036539744    20.900088      722.91323     -59.167399      663.74583    
    271000   293.7665       0.036539744    15.529305      728.84278     -61.421493      667.42129    
    272000   308.03988      0.036539744    9.2218496      764.25544     -64.057909      700.19753    
    273000   296.27817      0.036539744    32.017163      735.07431     -68.219853      666.85446    
    274000   297.23874      0.036539744    30.451852      737.45751     -66.981315      670.47619    
    275000   291.48608      0.036539744    20.320599      723.185       -56.649552      666.53545    
    276000   309.07109      0.036539744    13.685263      766.81389     -61.154501      705.65939    
    277000   302.41159      0.036539744    49.510426      750.29149     -61.842183      688.44931    
    278000   293.54194      0.036539744   -4.2430466      728.28564     -57.651945      670.63369    
    279000   301.36137      0.036539744    13.224421      747.68586     -65.186952      682.49891    
    280000   306.16276      0.036539744    32.614532      759.59825     -64.92226       694.67599    
    281000   290.81873      0.036539744    29.136621      721.52928     -63.549783      657.97949    
    282000   283.75327      0.036539744    20.650231      703.99968     -59.169939      644.82974    
    283000   304.04732      0.036539744    12.695555      754.34978     -59.176188      695.17359    
    284000   306.45981      0.036539744    26.373247      760.33524     -59.592117      700.74312    
    285000   301.81819      0.036539744    21.159379      748.81926     -57.430005      691.38925    
    286000   294.36701      0.036539744    13.434325      730.33267     -61.885055      668.44761    
    287000   296.25193      0.036539744    18.689316      735.00921     -66.883988      668.12522    
    288000   302.1291       0.036539744    17.863745      749.59062     -65.196317      684.3943     
    289000   308.52633      0.036539744    14.34323       765.46234     -61.335059      704.12728    
    290000   290.8273       0.036539744    22.508963      721.55055     -62.638131      658.91242    
    291000   308.45844      0.036539744    20.693208      765.29389     -58.621088      706.6728     
    292000   303.51439      0.036539744    19.189466      753.02758     -57.033228      695.99435    
    293000   294.21448      0.036539744    18.296583      729.95423     -67.162379      662.79185    
    294000   306.13238      0.036539744    11.54816       759.52287     -67.414127      692.10875    
    295000   310.30193      0.036539744    20.800603      769.86765     -63.745005      706.12264    
    296000   306.03601      0.036539744    22.608515      759.28378     -61.694748      697.58903    
    297000   306.04059      0.036539744    23.472688      759.29515     -69.807754      689.4874     
    298000   300.65145      0.036539744    28.919522      745.92453     -61.331391      684.59314    
    299000   287.48983      0.036539744    21.592765      713.27018     -64.015454      649.25473    
    300000   300.06964      0.036539744    17.825954      744.48104     -60.199095      684.28194    
    301000   298.43738      0.036539744    18.29633       740.43137     -64.472458      675.95891    
    302000   308.25259      0.036539744    24.268572      764.78317     -66.368083      698.41508    
    303000   288.3171       0.036539744    8.1444473      715.32268     -66.002274      649.32041    
    304000   299.57139      0.036539744    18.370351      743.24487     -61.41176       681.83311    
    305000   306.69803      0.036539744    30.961347      760.92626     -67.599197      693.32706    
    306000   295.59132      0.036539744    15.09504       733.3702      -60.519764      672.85044    
    307000   305.6147       0.036539744    16.622938      758.23849     -58.098621      700.13987    
    308000   302.21031      0.036539744    32.948194      749.7921      -57.749745      692.04236    
    309000   291.30546      0.036539744    19.03197       722.73688     -57.837237      664.89965    
    310000   294.28612      0.036539744    18.307649      730.13199     -58.075806      672.05618    
    311000   292.15272      0.036539744    19.620757      724.83895     -63.13885       661.7001     
    312000   308.99665      0.036539744    17.928122      766.62921     -66.517135      700.11207    
    313000   300.60162      0.036539744    17.514597      745.80092     -61.56199       684.23893    
    314000   302.44469      0.036539744    26.253194      750.37362     -59.443061      690.93056    
    315000   301.81515      0.036539744    10.834741      748.8117      -57.919288      690.89241    
    316000   295.73988      0.036539744    13.977885      733.7388      -60.64661       673.09219    
    317000   302.37376      0.036539744    20.383774      750.19762     -59.816399      690.38122    
    318000   298.48669      0.036539744    23.295141      740.5537      -53.85175       686.70195    
    319000   301.60467      0.036539744    16.573501      748.2895      -55.241981      693.04752    
    320000   308.60815      0.036539744    4.1882504      765.66532     -56.010056      709.65527    
    321000   292.74754      0.036539744    9.9323565      726.31472     -55.396687      670.91803    
    322000   301.73053      0.036539744    27.982972      748.60176     -63.834427      684.76734    
    323000   309.36104      0.036539744    21.109432      767.53326     -59.658521      707.87474    
    324000   303.77147      0.036539744    17.410532      753.66539     -60.774655      692.89074    
    325000   298.75996      0.036539744    18.370171      741.2317      -62.564791      678.66691    
    326000   296.89963      0.036539744    19.133857      736.61617     -62.892889      673.72328    
    327000   299.03854      0.036539744    17.115606      741.92287     -52.329829      689.59304    
    328000   309.96617      0.036539744    20.423423      769.03461     -51.185242      717.84936    
    329000   298.98411      0.036539744    20.876793      741.78781     -54.126176      687.66163    
    330000   296.13582      0.036539744    22.856968      734.72114     -49.144679      685.57647    
    331000   320.06245      0.036539744    19.094487      794.08377     -58.154464      735.9293     
    332000   298.6475       0.036539744    16.959117      740.95267     -63.104053      677.84862    
    333000   295.3697       0.036539744    24.368894      732.82037     -57.563868      675.2565     
    334000   306.99367      0.036539744    23.189548      761.65975     -58.973148      702.6866     
    335000   300.60126      0.036539744    12.858216      745.8         -64.266617      681.53339    
    336000   296.9292       0.036539744    18.708724      736.68954     -59.689991      676.99955    
    337000   306.48611      0.036539744    24.538387      760.40048     -60.362357      700.03812    
    338000   294.77526      0.036539744    8.6393204      731.34555     -58.535318      672.81023    
    339000   298.39855      0.036539744    27.687516      740.33503     -54.103488      686.23154    
    340000   305.05074      0.036539744    20.6831        756.83929     -59.423298      697.416      
    341000   293.07073      0.036539744    11.925977      727.11656     -59.864394      667.25217    
    342000   294.91016      0.036539744    13.229466      731.68025     -60.785531      670.89472    
    343000   309.25217      0.036539744    29.217703      767.26316     -59.848777      707.41439    
    344000   323.93309      0.036539744    5.9282828      803.68694     -53.746397      749.94054    
    345000   293.88988      0.036539744    7.8793166      729.14888     -56.863489      672.28539    
    346000   291.22177      0.036539744    22.427492      722.52924     -58.724016      663.80522    
    347000   315.96512      0.036539744    20.293442      783.91816     -50.402543      733.51562    
    348000   311.46975      0.036539744    18.095498      772.76504     -47.471806      725.29324    
    349000   296.98411      0.036539744    19.302389      736.82577     -54.73552       682.09025    
    350000   293.59945      0.036539744    21.163953      728.42832     -56.387736      672.04058    
    351000   311.27664      0.036539744    17.210959      772.28592     -57.179373      715.10655    
    352000   304.70453      0.036539744    20.129105      755.98034     -59.239954      696.74039    
    353000   290.87801      0.036539744    18.42848       721.67637     -63.317362      658.359      
    354000   293.74011      0.036539744    21.924908      728.7773      -63.811883      664.96542    
    355000   311.79768      0.036539744    21.975118      773.57865     -67.336713      706.24194    
    356000   295.44482      0.036539744    21.187571      733.00674     -61.408213      671.59853    
    357000   285.98959      0.036539744    16.622222      709.54806     -65.302961      644.2451     
    358000   296.78513      0.036539744    18.365291      736.33208     -67.066888      669.26519    
    359000   307.37326      0.036539744    13.284003      762.60153     -70.644569      691.95696    
    360000   299.73739      0.036539744    15.022322      743.65671     -71.262914      672.3938     
    361000   294.72001      0.036539744    29.542835      731.20848     -68.844288      662.36419    
    362000   301.42097      0.036539744    25.867832      747.83374     -62.86682       684.96692    
    363000   311.79712      0.036539744    1.1074891      773.57724     -66.870763      706.70648    
    364000   298.26262      0.036539744    13.715903      739.99779     -59.749543      680.24824    
    365000   291.63375      0.036539744    38.42689       723.55138     -60.885529      662.66585    
    366000   313.98009      0.036539744    35.454875      778.99325     -51.63773       727.35552    
    367000   311.31436      0.036539744   -6.0074926      772.3795      -61.055217      711.32428    
    368000   297.60617      0.036539744   -3.2330578      738.3691      -62.967747      675.40135    
    369000   295.08953      0.036539744    47.847223      732.12526     -59.723324      672.40193    
    370000   315.52553      0.036539744    15.032314      782.82755     -63.385777      719.44177    
    371000   298.37023      0.036539744    12.503432      740.26477     -59.841536      680.42323    
    372000   289.35657      0.036539744    34.40053       717.90162     -58.485245      659.41638    
    373000   303.54626      0.036539744    34.171608      753.10664     -61.894863      691.21177    
    374000   314.8138       0.036539744    8.3595524      781.06171     -64.95687       716.10484    
    375000   291.95989      0.036539744    11.438482      724.36053     -65.291828      659.0687     
    376000   282.8674       0.036539744    34.862718      701.80181     -60.963801      640.83801    
    377000   297.39117      0.036539744    23.200215      737.83568     -68.543641      669.29204    
    378000   311.09799      0.036539744    8.0991514      771.8427      -69.990548      701.85215    
    379000   301.33614      0.036539744    9.4057449      747.62326     -71.166533      676.45673    
    380000   295.32683      0.036539744    9.2724383      732.714       -70.434389      662.27961    
    381000   302.1999       0.036539744    19.159612      749.76627     -62.471634      687.29464    
    382000   304.37637      0.036539744    19.409155      755.16617     -59.84054       695.32563    
    383000   299.69334      0.036539744    27.653303      743.54745     -64.059124      679.48833    
    384000   315.29241      0.036539744    16.019381      782.24917     -61.708865      720.5403     
    385000   295.08115      0.036539744    17.103419      732.10446     -64.811231      667.29323    
    386000   297.46029      0.036539744    18.484101      738.00719     -61.095186      676.912      
    387000   302.77354      0.036539744    19.56352       751.18949     -63.920909      687.26859    
    388000   296.21025      0.036539744    15.029724      734.90578     -70.187087      664.7187     
    389000   314.0558       0.036539744    18.944309      779.1811      -74.991342      704.18975    
    390000   301.03478      0.036539744    23.432362      746.87558     -66.216164      680.65942    
    391000   284.49498      0.036539744    17.035199      705.83989     -64.932503      640.90739    
    392000   289.69218      0.036539744    14.784363      718.73429     -72.265769      646.46852    
    393000   311.17289      0.036539744    19.355213      772.02852     -66.37749       705.65103    
    394000   302.96898      0.036539744    19.307143      751.6744      -70.330215      681.34418    
    395000   322.94491      0.036539744    20.203006      801.23522     -69.891747      731.34348    
    396000   300.87856      0.036539744    20.406662      746.48801     -68.264217      678.22379    
    397000   297.48063      0.036539744    21.732338      738.05765     -68.869385      669.18826    
    398000   292.91007      0.036539744    18.257131      726.71795     -77.966215      648.75174    
    399000   305.71308      0.036539744    16.29595       758.48259     -74.168835      684.31376    
    400000   306.80135      0.036539744    19.342144      761.18261     -73.372206      687.8104     
    401000   291.21744      0.036539744    17.421368      722.51851     -65.788645      656.72986    
    402000   304.54261      0.036539744    10.217819      755.57862     -76.179158      679.39946    
    403000   308.94823      0.036539744    23.018037      766.50908     -68.932493      697.57658    
    404000   294.4645       0.036539744    18.585227      730.57453     -74.98806       655.58647    
    405000   297.50571      0.036539744    16.175898      738.11986     -76.041711      662.07815    
    406000   316.62342      0.036539744    18.194846      785.55144     -71.534806      714.01663    
    407000   296.65117      0.036539744    20.716434      735.99974     -69.473289      666.52645    
    408000   290.54891      0.036539744    16.628089      720.85985     -69.171391      651.68846    
    409000   295.18656      0.036539744    19.102689      732.36599     -62.888539      669.47745    
    410000   303.6761       0.036539744    21.657241      753.42876     -72.433361      680.9954     
    411000   301.01462      0.036539744    8.602171       746.82556     -73.789209      673.03635    
    412000   293.36867      0.036539744    22.633279      727.85576     -71.610431      656.24533    
    413000   303.04198      0.036539744    25.85248       751.85551     -73.610685      678.24482    
    414000   310.50221      0.036539744    20.728474      770.36455     -68.971793      701.39276    
    415000   305.42964      0.036539744    13.837844      757.77935     -71.711978      686.06737    
    416000   284.99138      0.036539744    18.351763      707.07147     -75.478127      631.59335    
    417000   302.49737      0.036539744    18.367356      750.50431     -68.751756      681.75256    
    418000   300.98677      0.036539744    4.5890268      746.75648     -67.760301      678.99618    
    419000   299.59028      0.036539744    23.572305      743.29175     -65.219345      678.07241    
    420000   291.48268      0.036539744    25.109059      723.17656     -70.034003      653.14256    
    421000   289.60934      0.036539744    11.668701      718.52876     -67.76079       650.76796    
    422000   302.63606      0.036539744    4.4029417      750.8484      -73.621919      677.22648    
    423000   303.94758      0.036539744    26.975938      754.10232     -71.763341      682.33898    
    424000   296.0335       0.036539744    17.655382      734.46727     -66.739192      667.72808    
    425000   295.13311      0.036539744    17.702815      732.23337     -69.992198      662.24117    
    426000   311.33862      0.036539744    14.14709       772.43971     -72.810292      699.62942    
    427000   296.48239      0.036539744    27.030464      735.58098     -68.940796      666.64018    
    428000   296.25145      0.036539744    14.897868      735.00801     -69.26474       665.74327    
    429000   315.50528      0.036539744    16.903156      782.77731     -77.026759      705.75055    
    430000   300.64734      0.036539744    19.479051      745.91433     -72.508499      673.40583    
    431000   280.65739      0.036539744    13.041211      696.31872     -63.235653      633.08307    
    432000   311.32216      0.036539744    17.41511       772.39886     -66.582282      705.81658    
    433000   305.69228      0.036539744    20.186674      758.43098     -61.177676      697.2533     
    434000   278.91441      0.036539744    18.336694      691.99434     -59.373074      632.62127    
    435000   302.60713      0.036539744    22.932327      750.77662     -62.561267      688.21535    
    436000   313.92091      0.036539744    20.188001      778.84643     -72.187687      706.65874    
    437000   295.08352      0.036539744    18.76802       732.11036     -72.894404      659.21595    
    438000   291.93587      0.036539744    16.784522      724.30094     -70.746008      653.55493    
    439000   296.61991      0.036539744    17.775357      735.92218     -87.341369      648.58081    
    440000   295.62747      0.036539744    18.075336      733.4599      -85.639085      647.82082    
    441000   306.13957      0.036539744    19.353394      759.54072     -84.116291      675.42443    
    442000   300.31538      0.036539744    20.327922      745.09074     -75.114048      669.9767     
    443000   298.56158      0.036539744    20.683265      740.7395      -75.422748      665.31676    
    444000   300.9846       0.036539744    15.980241      746.75109     -68.934963      677.81612    
    445000   299.04721      0.036539744    16.678794      741.94437     -68.71492       673.22945    
    446000   309.1816       0.036539744    21.639372      767.08807     -66.34076       700.74731    
    447000   306.79127      0.036539744    21.987539      761.15759     -68.52845       692.62914    
    448000   292.43473      0.036539744    17.363089      725.53864     -71.646609      653.89203    
    449000   286.11974      0.036539744    17.961431      709.87097     -68.117904      641.75306    
    450000   299.52929      0.036539744    19.89126       743.14043     -76.285232      666.8552     
    451000   318.85554      0.036539744    19.748431      791.08939     -74.918934      716.17046    
    452000   298.27208      0.036539744    22.466013      740.02126     -68.783307      671.23796    
    453000   284.33505      0.036539744    16.536983      705.4431      -71.222984      634.22012    
    454000   286.64562      0.036539744    18.356601      711.17568     -69.507563      641.66812    
    455000   301.76795      0.036539744    14.938874      748.69461     -69.260491      679.43412    
    456000   304.14782      0.036539744    12.682599      754.59912     -63.362933      691.23619    
    457000   303.88988      0.036539744    24.351777      753.95918     -59.695942      694.26324    
    458000   303.78471      0.036539744    19.010023      753.69825     -63.186872      690.51137    
    459000   295.44047      0.036539744    18.462234      732.99595     -73.436658      659.55929    
    460000   300.96108      0.036539744    15.42396       746.69273     -71.160158      675.53257    
    461000   298.79949      0.036539744    19.591786      741.32978     -64.000752      677.32902    
    462000   299.33137      0.036539744    18.244001      742.64937     -61.174097      681.47528    
    463000   290.42963      0.036539744    18.643468      720.56393     -63.783561      656.78037    
    464000   299.83362      0.036539744    21.018936      743.89547     -66.046049      677.84942    
    465000   310.41461      0.036539744    20.630786      770.14721     -66.721754      703.42545    
    466000   308.89909      0.036539744    17.056145      766.38716     -60.643659      705.7435     
    467000   291.03018      0.036539744    16.148656      722.05391     -68.599723      653.45419    
    468000   306.72698      0.036539744    21.480585      760.9981      -69.236687      691.76141    
    469000   299.79673      0.036539744    7.4984307      743.80394     -68.397186      675.40675    
    470000   321.69137      0.036539744    11.637475      798.12517     -69.683746      728.44142    
    471000   308.23598      0.036539744    20.131748      764.74195     -62.190779      702.55117    
    472000   291.23021      0.036539744    20.576594      722.55019     -70.197606      652.35258    
    473000   297.38362      0.036539744    24.712465      737.81697     -66.343793      671.47317    
    474000   297.49271      0.036539744    20.687767      738.08762     -62.212206      675.87542    
    475000   307.86709      0.036539744   -1.1499259      763.82673     -65.309182      698.51755    
    476000   303.56479      0.036539744    22.810202      753.15262     -67.522536      685.63008    
    477000   297.05724      0.036539744    17.776496      737.00721     -66.016925      670.99028    
    478000   305.84476      0.036539744    17.93788       758.80928     -59.869795      698.93949    
    479000   304.59223      0.036539744    20.890535      755.70172     -63.487745      692.21397    
    480000   284.12729      0.036539744    20.547115      704.92764     -57.895214      647.03242    
    481000   287.14382      0.036539744    15.635709      712.41174     -56.780286      655.63145    
    482000   302.03246      0.036539744    19.033464      749.35086     -60.577807      688.77305    
    483000   307.10724      0.036539744    21.330391      761.94153     -56.89109       705.05044    
    484000   300.64503      0.036539744    21.374412      745.90862     -65.031144      680.87747    
    485000   289.45951      0.036539744    18.462253      718.15703     -61.340585      656.81645    
    486000   296.87484      0.036539744    19.625632      736.55465     -67.280044      669.27461    
    487000   310.2624       0.036539744    17.650549      769.76956     -66.086537      703.68302    
    488000   299.32192      0.036539744    19.247328      742.62593     -70.059817      672.56611    
    489000   288.06598      0.036539744    17.694227      714.69964     -66.637436      648.06221    
    490000   292.7819       0.036539744    19.710813      726.39997     -79.312981      647.08699    
    491000   311.60084      0.036539744    15.13886       773.09028     -70.444396      702.64589    
    492000   293.88825      0.036539744    15.406194      729.14486     -72.79358       656.35128    
    493000   288.92376      0.036539744    24.00882       716.82781     -73.560481      643.26732    
    494000   299.39521      0.036539744    19.898902      742.80776     -63.783621      679.02414    
    495000   292.60973      0.036539744    18.233796      725.97282     -70.620545      655.35227    
    496000   300.68076      0.036539744    16.354404      745.99725     -65.215295      680.78195    
    497000   300.17848      0.036539744    17.381962      744.75108     -65.819251      678.93183    
    498000   295.19327      0.036539744    8.6208906      732.38264     -66.552349      665.83029    
    499000   293.97791      0.036539744    4.7690505      729.3673      -69.716213      659.65109    
    500000   302.1166       0.036539744    22.988645      749.5596      -68.67099       680.88861    
    501000   308.13655      0.036539744    18.45826       764.49526     -71.322878      693.17239    
    502000   309.98071      0.036539744    16.213926      769.07068     -68.28032       700.79036    
    503000   290.71287      0.036539744    20.707719      721.26665     -66.18043       655.08622    
    504000   297.95392      0.036539744    22.639086      739.23189     -65.484809      673.74708    
    505000   311.00289      0.036539744    12.923664      771.60675     -66.653406      704.95335    
    506000   288.3759       0.036539744    18.079054      715.46857     -64.462972      651.00559    
    507000   295.14871      0.036539744    19.059311      732.27208     -63.692231      668.57985    
    508000   297.74991      0.036539744    22.052716      738.72574     -54.800807      683.92493    
    509000   296.09401      0.036539744    19.446607      734.61739     -56.824258      677.79314    
    510000   310.33189      0.036539744    17.376969      769.94198     -57.287171      712.65481    
    511000   310.90239      0.036539744    19.110188      771.35741     -59.791839      711.56557    
    512000   291.50826      0.036539744    22.466827      723.24004     -63.472065      659.76797    
    513000   302.3848       0.036539744    25.673304      750.22503     -67.56139       682.66364    
    514000   290.68353      0.036539744    18.677744      721.19385     -62.930247      658.2636     
    515000   300.18956      0.036539744    15.338066      744.77857     -67.410741      677.36783    
    516000   315.89811      0.036539744    26.814837      783.75191     -67.693912      716.058      
    517000   296.99253      0.036539744    22.94913       736.84666     -59.883967      676.96269    
    518000   293.56122      0.036539744    15.855011      728.33349     -66.319935      662.01355    
    519000   289.63338      0.036539744    17.652118      718.58841     -62.634253      655.95416    
    520000   295.49926      0.036539744    18.322212      733.1418      -67.719927      665.42188    
    521000   313.22742      0.036539744    23.253231      777.12587     -61.442521      715.68335    
    522000   302.42651      0.036539744    18.809581      750.32852     -72.040308      678.28821    
    523000   288.79118      0.036539744    15.858174      716.49888     -72.031928      644.46695    
    524000   294.8615       0.036539744    19.972593      731.55952     -68.029151      663.53036    
    525000   305.71424      0.036539744    17.981891      758.48545     -69.481291      689.00416    
    526000   302.38815      0.036539744    19.191487      750.23333     -65.231269      685.00206    
    527000   296.29039      0.036539744    22.685209      735.10461     -62.399336      672.70528    
    528000   289.6135       0.036539744    14.405732      718.53907     -64.465984      654.07309    
    529000   307.91267      0.036539744    19.79341       763.93981     -68.016831      695.92298    
    530000   308.3162       0.036539744    19.929146      764.941       -60.433753      704.50725    
    531000   300.72545      0.036539744    20.041341      746.10812     -56.550828      689.55729    
    532000   287.41253      0.036539744    12.499511      713.07841     -60.161802      652.91661    
    533000   286.77371      0.036539744    18.980655      711.49349     -51.160386      660.3331     
    534000   306.34642      0.036539744    21.242535      760.05391     -58.082752      701.97116    
    535000   317.20945      0.036539744    17.605947      787.00539     -63.031928      723.97346    
    536000   294.7279       0.036539744    14.478105      731.22803     -61.447915      669.78012    
    537000   286.46771      0.036539744    10.998843      710.73429     -60.304814      650.42948    
    538000   293.73315      0.036539744    18.197191      728.76004     -67.247552      661.51249    
    539000   314.82358      0.036539744    25.686089      781.08598     -62.809202      718.27678    
    540000   307.61027      0.036539744    15.299991      763.18957     -65.653523      697.53605    
    541000   290.1931       0.036539744    11.496881      719.97707     -67.053984      652.92308    
    542000   303.25845      0.036539744    18.899023      752.39257     -62.349065      690.0435     
    543000   293.86335      0.036539744    6.8801466      729.08307     -57.220709      671.86236    
    544000   304.95486      0.036539744    25.921253      756.60142     -59.840072      696.76134    
    545000   315.37589      0.036539744    19.21958       782.45627     -62.571327      719.88494    
    546000   292.27077      0.036539744    20.583493      725.13184     -57.952408      667.17944    
    547000   287.85917      0.036539744    17.806494      714.18654     -55.380067      658.80647    
    548000   300.27851      0.036539744    18.306416      744.99927     -57.450448      687.54882    
    549000   308.29268      0.036539744    18.752331      764.88263     -61.323437      703.55919    
    550000   294.54892      0.036539744    20.778415      730.784       -58.397821      672.38618    
    551000   284.41632      0.036539744    16.668564      705.64473     -59.469797      646.17493    
    552000   298.96898      0.036539744    23.611303      741.75028     -58.121676      683.62861    
    553000   316.45204      0.036539744    16.505536      785.12624     -54.111025      731.01521    
    554000   304.68836      0.036539744    16.274639      755.94021     -56.166359      699.77385    
    555000   304.09783      0.036539744    17.047194      754.4751      -54.425767      700.04933    
    556000   296.09671      0.036539744    21.814544      734.62411     -53.884603      680.73951    
    557000   298.00382      0.036539744    17.496934      739.3557      -55.557651      683.79805    
    558000   306.02225      0.036539744    22.497336      759.24964     -50.542777      708.70686    
    559000   298.75422      0.036539744    16.109642      741.21746     -63.228616      677.98885    
    560000   282.93826      0.036539744    15.785809      701.97763     -60.175085      641.80254    
    561000   299.98927      0.036539744    30.97362       744.28164     -57.582917      686.69873    
    562000   314.00296      0.036539744    22.305572      779.05        -56.029402      723.0206     
    563000   296.83813      0.036539744    15.775697      736.46358     -55.003972      681.45961    
    564000   294.18798      0.036539744    21.980432      729.88848     -56.163783      673.7247     
    565000   310.72363      0.036539744    19.587235      770.91389     -51.325764      719.58813    
    566000   317.9833       0.036539744    17.892011      788.92534     -52.168971      736.75637    
    567000   311.82908      0.036539744    19.086371      773.65654     -55.353444      718.3031     
    568000   298.40894      0.036539744    15.54985       740.3608      -56.056732      684.30407    
    569000   296.11135      0.036539744    20.108991      734.66042     -55.720469      678.93995    
    570000   300.63955      0.036539744    19.163388      745.89501     -53.563006      692.33201    
    571000   299.71778      0.036539744    19.646148      743.60807     -54.422585      689.18549    
    572000   291.25112      0.036539744    18.372021      722.60205     -52.937204      669.66484    
    573000   310.12861      0.036539744    19.487608      769.43762     -52.79837       716.63925    
    574000   306.95992      0.036539744    17.889366      761.57603     -56.685166      704.89086    
    575000   291.40992      0.036539744    12.474853      722.99604     -59.281416      663.71462    
    576000   286.6106       0.036539744    20.4849        711.0888      -55.94993       655.13887    
    577000   312.9852       0.036539744    22.724793      776.52491     -54.68689       721.83802    
    578000   307.10181      0.036539744    17.393029      761.92806     -56.160861      705.7672     
    579000   290.96791      0.036539744    19.254078      721.8994      -53.025742      668.87366    
    580000   300.1631       0.036539744    16.851462      744.71292     -60.055972      684.65694    
    581000   311.6417       0.036539744    22.960741      773.19165     -60.225576      712.96608    
    582000   290.6534       0.036539744    17.216502      721.11911     -62.188407      658.9307     
    583000   298.85732      0.036539744    23.576863      741.47326     -62.764434      678.70882    
    584000   311.16586      0.036539744    20.686785      772.01108     -55.810564      716.20052    
    585000   310.48713      0.036539744    20.923285      770.32713     -55.531373      714.79576    
    586000   291.53884      0.036539744    11.524344      723.3159      -48.993381      674.32252    
    587000   293.04969      0.036539744    20.796746      727.06435     -54.447935      672.61642    
    588000   306.56122      0.036539744    19.663659      760.58683     -56.60332       703.98351    
    589000   307.6765       0.036539744    17.861955      763.35389     -55.606128      707.74776    
    590000   295.22194      0.036539744    12.149913      732.45376     -56.069431      676.38433    
    591000   289.68835      0.036539744    8.1626321      718.72478     -52.377909      666.34687    
    592000   302.59365      0.036539744    6.2327989      750.74318     -54.499826      696.24335    
    593000   301.57558      0.036539744    19.340603      748.21734     -49.937871      698.27946    
    594000   304.43627      0.036539744    19.629174      755.31478     -53.181963      702.13282    
    595000   308.30979      0.036539744    22.198417      764.92509     -57.273288      707.6518     
    596000   293.64335      0.036539744    10.206542      728.53725     -57.634145      670.90311    
    597000   295.65119      0.036539744    18.45816       733.51875     -60.946116      672.57263    
    598000   309.77967      0.036539744    27.737118      768.57191     -56.230266      712.34164    
    599000   301.84168      0.036539744    21.837771      748.87753     -53.078349      695.79918    
    600000   288.38658      0.036539744    4.2991802      715.49506     -56.957968      658.53709    
    601000   302.56775      0.036539744    21.112268      750.67893     -62.329103      688.34983    
    602000   300.66008      0.036539744    20.76856       745.94595     -59.916899      686.02905    
    603000   291.15282      0.036539744    5.5700702      722.35818     -63.98421       658.37397    
    604000   293.3686       0.036539744    20.131551      727.85558     -60.667136      667.18844    
    605000   300.24546      0.036539744    21.922547      744.91725     -62.825424      682.09183    
    606000   312.70951      0.036539744    20.143377      775.84093     -65.265726      710.5752     
    607000   302.29589      0.036539744    19.809258      750.00443     -63.551084      686.45334    
    608000   285.05684      0.036539744    17.193328      707.23387     -60.719899      646.51397    
    609000   304.71496      0.036539744    19.577715      756.00622     -67.378881      688.62734    
    610000   315.52204      0.036539744    25.643902      782.81889     -56.135912      726.68297    
    611000   301.73749      0.036539744    19.849579      748.61902     -58.254194      690.36483    
    612000   286.3143       0.036539744    23.932888      710.35367     -50.624682      659.72899    
    613000   298.71542      0.036539744    18.323993      741.12119     -47.710317      693.41088    
    614000   308.10782      0.036539744    5.6812761      764.42401     -46.327922      718.09608    
    615000   298.48887      0.036539744    27.208475      740.55912     -42.125461      698.43366    
    616000   293.10665      0.036539744    16.999935      727.20569     -48.16171       679.04398    
    617000   297.83945      0.036539744    4.3435121      738.94789     -50.662265      688.28562    
    618000   300.41027      0.036539744    21.559435      745.32617     -52.145741      693.18043    
    619000   309.53237      0.036539744    26.422207      767.95834     -52.744667      715.21368    
    620000   302.60649      0.036539744    20.758047      750.77504     -58.922836      691.8522     
    621000   295.8045       0.036539744    14.016837      733.89912     -66.095279      667.80384    
    622000   310.55329      0.036539744    17.985471      770.49127     -62.320826      708.17044    
    623000   304.12171      0.036539744    18.029277      754.53435     -58.741752      695.79259    
    624000   297.78295      0.036539744    25.526482      738.80772     -62.029532      676.77818    
    625000   308.15366      0.036539744    26.295448      764.53772     -59.194868      705.34285    
    626000   298.46028      0.036539744    8.1478257      740.48817     -59.71749       680.77068    
    627000   306.2356       0.036539744    18.652922      759.77898     -55.464753      704.31422    
    628000   294.72264      0.036539744    25.611363      731.215       -62.466978      668.74802    
    629000   296.60819      0.036539744    20.203542      735.89311     -62.492079      673.40103    
    630000   305.6861       0.036539744    14.977693      758.41565     -66.675252      691.74039    
    631000   311.79105      0.036539744    22.306065      773.5622      -67.864407      705.69779    
    632000   294.5901       0.036539744    21.264591      730.88616     -67.792805      663.09335    
    633000   288.53752      0.036539744    17.93335       715.86955     -65.047151      650.8224     
    634000   305.86554      0.036539744    21.209026      758.86084     -61.415469      697.44537    
    635000   300.19262      0.036539744    20.724088      744.78616     -58.74865       686.03751    
    636000   309.66068      0.036539744    21.038082      768.27667     -55.489568      712.7871     
    637000   292.1982       0.036539744    15.444149      724.95179     -50.024329      674.92746    
    638000   284.07052      0.036539744    16.653825      704.78679     -52.048997      652.73779    
    639000   308.08653      0.036539744    19.475529      764.37118     -61.934246      702.43694    
    640000   317.35343      0.036539744    23.624276      787.3626      -56.406458      730.95614    
    641000   300.84665      0.036539744    19.975296      746.40882     -56.489192      689.91963    
    642000   294.74549      0.036539744    17.445579      731.27169     -55.588034      675.68366    
    643000   315.76225      0.036539744    20.12479       783.41484     -60.259909      723.15494    
    644000   328.90911      0.036539744    16.559963      816.03256     -64.807546      751.22501    
    645000   296.86522      0.036539744    22.492585      736.53079     -59.072918      677.45787    
    646000   280.63428      0.036539744    18.23933       696.26138     -64.636674      631.6247     
    647000   298.43412      0.036539744    18.926298      740.42328     -55.732353      684.69093    
    648000   297.69035      0.036539744    17.93691       738.57797     -62.818543      675.75942    
    649000   302.15441      0.036539744    19.432035      749.65342     -57.307405      692.34601    
    650000   295.37783      0.036539744    16.501442      732.84054     -63.731711      669.10883    
    651000   303.12896      0.036539744    17.846591      752.0713      -64.468333      687.60297    
    652000   301.6734       0.036539744    20.788153      748.46002     -63.971869      684.48816    
    653000   289.1623       0.036539744    20.674024      717.41964     -59.165301      658.25434    
    654000   300.2456       0.036539744    18.450099      744.91762     -61.288189      683.62943    
    655000   292.93449      0.036539744    14.86404       726.77854     -66.167477      660.61107    
    656000   302.41638      0.036539744    18.750727      750.30338     -60.756503      689.54687    
    657000   305.8535       0.036539744    23.241461      758.83095     -55.739587      703.09137    
    658000   303.80511      0.036539744    17.419095      753.74884     -67.745528      686.00332    
    659000   297.21237      0.036539744    15.027397      737.39208     -61.328961      676.06312    
    660000   300.62041      0.036539744    19.528284      745.84752     -57.68549       688.16203    
    661000   304.17099      0.036539744    26.733481      754.65662     -55.443108      699.21351    
    662000   303.83389      0.036539744    15.241439      753.82026     -56.559879      697.26038    
    663000   319.07594      0.036539744    18.807219      791.63619     -65.527076      726.10912    
    664000   291.6003       0.036539744    21.142259      723.46838     -66.763856      656.70452    
    665000   292.6664       0.036539744    17.367252      726.1134      -68.008931      658.10447    
    666000   306.94093      0.036539744    18.923705      761.52891     -63.043033      698.48588    
    667000   288.71429      0.036539744    17.586455      716.30812     -63.046559      653.26156    
    668000   297.41255      0.036539744    13.868669      737.88873     -65.0216        672.86713    
    669000   302.86985      0.036539744    18.676172      751.42844     -67.437744      683.9907     
    670000   290.23905      0.036539744    16.952287      720.09109     -58.733769      661.35732    
    671000   309.44284      0.036539744    19.126481      767.73622     -58.62806       709.10816    
    672000   302.28157      0.036539744    19.518664      749.96891     -63.041711      686.9272     
    673000   292.38333      0.036539744    17.964191      725.41111     -65.125312      660.2858     
    674000   294.38279      0.036539744    21.149085      730.37181     -65.82634       664.54547    
    675000   303.75174      0.036539744    22.229729      753.61645     -60.907573      692.70888    
    676000   300.73581      0.036539744    17.048264      746.13383     -67.22181       678.91202    
    677000   301.9629       0.036539744    17.093395      749.17828     -67.111825      682.06645    
    678000   301.37934      0.036539744    19.439179      747.73044     -66.007772      681.72267    
    679000   299.05929      0.036539744    16.286982      741.97435     -67.684664      674.28969    
    680000   297.60863      0.036539744    19.877184      738.37521     -68.419664      669.95555    
    681000   313.35683      0.036539744    26.471764      777.44693     -66.312878      711.13405    
    682000   298.64921      0.036539744    17.484814      740.95693     -72.141098      668.81583    
    683000   297.01286      0.036539744    18.001718      736.89709     -65.234215      671.66287    
    684000   290.14427      0.036539744    15.550254      719.85594     -59.871259      659.98468    
    685000   319.00963      0.036539744    17.140175      791.47168     -68.047001      723.42468    
    686000   305.01048      0.036539744    22.230792      756.73942     -59.729472      697.00995    
    687000   296.58149      0.036539744    17.329523      735.82686     -63.335751      672.49111    
    688000   294.19124      0.036539744    17.883238      729.89658     -58.521707      671.37488    
    689000   303.65774      0.036539744    22.72769       753.38321     -60.913332      692.46988    
    690000   294.25492      0.036539744    17.899886      730.05457     -56.447686      673.60688    
    691000   299.39759      0.036539744    17.16795       742.81367     -50.806622      692.00705    
    692000   293.57419      0.036539744    19.995866      728.36566     -58.654696      669.71096    
    693000   297.96495      0.036539744    23.925232      739.25926     -56.203293      683.05596    
    694000   302.29478      0.036539744    23.698814      750.00168     -54.589133      695.41254    
    695000   298.67547      0.036539744    16.575609      741.02207     -56.864632      684.15744    
    696000   292.9718       0.036539744    16.440331      726.87112     -51.064771      675.80635    
    697000   299.53223      0.036539744    19.647404      743.14771     -58.782108      684.3656     
    698000   301.72566      0.036539744    24.876062      748.58968     -65.313315      683.27636    
    699000   305.72677      0.036539744    19.36866       758.51653     -61.595532      696.921      
    700000   292.31775      0.036539744    19.473297      725.2484      -62.085372      663.16303    
    701000   295.75182      0.036539744    19.657014      733.76842     -71.09501       662.67341    
    702000   305.98251      0.036539744    19.32337       759.15103     -70.180701      688.97033    
    703000   297.93564      0.036539744    16.861053      739.18653     -65.050694      674.13584    
    704000   289.94076      0.036539744    20.241941      719.35102     -63.373194      655.97783    
    705000   300.24027      0.036539744    21.390582      744.90438     -54.264915      690.63947    
    706000   321.56168      0.036539744    19.529022      797.8034      -57.48601       740.31739    
    707000   306.08667      0.036539744    11.685595      759.40946     -55.877491      703.53196    
    708000   288.41712      0.036539744    22.069497      715.57082     -55.059932      660.51088    
    709000   302.11627      0.036539744    28.065977      749.55879     -59.356051      690.20274    
    710000   310.37432      0.036539744    18.872391      770.04724     -54.236803      715.81044    
    711000   294.43443      0.036539744    17.722023      730.49994     -55.922974      674.57697    
    712000   306.93502      0.036539744    24.842527      761.51424     -61.892322      699.62192    
    713000   310.19162      0.036539744    34.928656      769.59397     -66.203221      703.39075    
    714000   312.45776      0.036539744    18.993747      775.21632     -65.389305      709.82702    
    715000   294.68557      0.036539744    13.334633      731.12301     -62.151677      668.97133    
    716000   306.23431      0.036539744    16.362202      759.77577     -59.658522      700.11725    
    717000   296.76111      0.036539744    14.371512      736.27248     -61.965135      674.30735    
    718000   292.57881      0.036539744    17.692997      725.8961      -55.767614      670.12848    
    719000   301.46646      0.036539744    25.056068      747.9466      -66.846247      681.10035    
    720000   315.63551      0.036539744    11.149789      783.1004      -59.758601      723.3418     
    721000   303.68883      0.036539744    18.211627      753.46037     -55.15502       698.30535    
    722000   290.55865      0.036539744    36.765238      720.88402     -51.647836      669.23618    
    723000   302.56316      0.036539744    40.70892       750.66755     -60.435174      690.23238    
    724000   292.79325      0.036539744    15.165534      726.42813     -55.860104      670.56802    
[...]
   3823000   304.78905      0.036539744    22.632151      756.19004     -47.099617      709.09043    
   3824000   311.04676      0.036539744    20.120311      771.7156      -58.057423      713.65817    
   3825000   295.94391      0.036539744    19.504836      734.245       -58.955495      675.28951    
   3826000   307.07609      0.036539744    17.933487      761.86424     -58.061549      703.80269    
   3827000   317.34291      0.036539744    20.370839      787.3365      -60.635589      726.70091    
   3828000   295.16119      0.036539744    17.324604      732.30304     -59.189921      673.11312    
   3829000   287.24509      0.036539744    17.963634      712.66299     -58.873938      653.78905    
   3830000   311.34108      0.036539744    17.995491      772.4458      -68.899193      703.54661    
   3831000   294.00394      0.036539744    20.551709      729.43187     -60.608084      668.82379    
   3832000   292.56158      0.036539744    16.623451      725.85333     -62.058321      663.79501    
   3833000   296.7052       0.036539744    19.367636      736.13379     -61.059907      675.07388    
   3834000   321.45836      0.036539744    18.199849      797.54706     -60.906087      736.64097    
   3835000   300.42562      0.036539744    14.607765      745.36424     -55.180087      690.18416    
   3836000   302.14087      0.036539744    25.725344      749.61983     -58.013772      691.60605    
   3837000   313.90158      0.036539744    18.656561      778.79846     -59.845438      718.95303    
   3838000   289.42584      0.036539744    15.746458      718.07349     -58.38367       659.68982    
   3839000   305.46422      0.036539744    21.250093      757.86514     -60.394363      697.47078    
   3840000   313.92702      0.036539744    17.999729      778.8616      -58.168024      720.69357    
   3841000   290.99037      0.036539744    11.775087      721.95512     -54.243452      667.71167    
   3842000   292.98127      0.036539744    20.4999        726.8946      -57.374209      669.52039    
   3843000   306.77002      0.036539744    15.257519      761.10487     -61.517135      699.58774    
   3844000   305.57104      0.036539744    15.383147      758.13017     -56.874235      701.25593    
   3845000   300.87067      0.036539744    18.518998      746.46842     -64.75926       681.70916    
   3846000   306.16003      0.036539744    18.319794      759.59148     -59.96346       699.62802    
   3847000   292.3784       0.036539744    20.393685      725.39886     -58.311702      667.08716    
   3848000   299.19615      0.036539744    28.55663       742.3139      -58.799907      683.51399    
   3849000   298.65806      0.036539744    18.780319      740.97888     -60.802234      680.17665    
   3850000   310.8631       0.036539744    16.502944      771.25993     -61.967788      709.29214    
   3851000   294.42389      0.036539744    20.032782      730.47378     -57.29888       673.1749     
   3852000   294.10149      0.036539744    16.006316      729.6739      -59.910044      669.76386    
   3853000   305.81424      0.036539744    15.008295      758.73356     -61.104759      697.6288     
   3854000   309.10546      0.036539744    18.734216      766.89916     -58.020858      708.8783     
   3855000   304.99071      0.036539744    24.778831      756.69037     -58.330667      698.3597     
   3856000   291.29869      0.036539744    13.717272      722.72008     -60.907988      661.81209    
   3857000   302.79448      0.036539744    19.976077      751.24144     -63.380618      687.86082    
   3858000   301.4016       0.036539744    20.762263      747.78567     -67.806832      679.97884    
   3859000   293.73163      0.036539744    18.708084      728.75627     -61.345703      667.41057    
   3860000   304.47595      0.036539744    22.276006      755.41322     -57.748268      697.66495    
   3861000   301.1131       0.036539744    18.067781      747.06991     -62.617581      684.45233    
   3862000   282.59116      0.036539744    24.873467      701.11645     -56.974745      644.1417     
   3863000   289.54206      0.036539744    8.4186036      718.36183     -59.961432      658.40039    
   3864000   321.27642      0.036539744    12.017784      797.09566     -59.394693      737.70097    
   3865000   299.02919      0.036539744    26.690306      741.89967     -59.902909      681.99676    
   3866000   291.07231      0.036539744    23.126109      722.15843     -61.250482      660.90794    
   3867000   293.64075      0.036539744    7.8162594      728.5308      -55.288939      673.24186    
   3868000   314.51938      0.036539744    21.785098      780.33125     -54.784218      725.54703    
   3869000   293.15709      0.036539744    20.208833      727.33083     -56.044243      671.28659    
   3870000   296.13603      0.036539744    11.747902      734.72165     -47.313385      687.40826    
   3871000   302.63684      0.036539744    20.114476      750.85035     -52.570453      698.27989    
   3872000   291.3808       0.036539744    13.091641      722.9238      -51.107563      671.81623    
   3873000   317.11013      0.036539744    19.67654       786.75898     -56.752911      730.00607    
   3874000   293.63121      0.036539744    20.089573      728.50712     -53.99115       674.51597    
   3875000   305.28496      0.036539744    19.351275      757.42041     -52.07898       705.34143    
   3876000   295.18562      0.036539744    17.240242      732.36367     -56.955959      675.40771    
   3877000   301.58122      0.036539744    16.812574      748.23133     -53.153779      695.07755    
   3878000   290.45302      0.036539744    15.763718      720.62196     -59.879394      660.74256    
   3879000   307.77206      0.036539744    19.322518      763.59097     -67.653319      695.93766    
   3880000   297.96036      0.036539744    15.995015      739.24786     -63.556132      675.69172    
   3881000   305.09854      0.036539744    28.669053      756.9579      -58.876783      698.08111    
   3882000   299.20512      0.036539744    17.455945      742.33615     -61.1829        681.15325    
   3883000   291.0454       0.036539744    19.309875      722.09165     -59.832271      662.25938    
   3884000   296.26249      0.036539744    18.805493      735.03541     -61.206641      673.82877    
   3885000   304.88959      0.036539744    20.344121      756.43949     -59.723419      696.71607    
   3886000   304.81178      0.036539744    19.040226      756.24643     -52.553205      703.69322    
   3887000   303.28552      0.036539744    23.081737      752.45974     -55.404032      697.0557     
   3888000   304.78104      0.036539744    18.540741      756.17016     -62.688407      693.48175    
   3889000   281.47968      0.036539744    15.298777      698.35885     -66.249474      632.10938    
   3890000   289.59015      0.036539744    17.648714      718.48115     -69.405191      649.07596    
   3891000   297.49536      0.036539744    22.62548       738.09418     -64.553246      673.54094    
   3892000   297.95158      0.036539744    15.036933      739.22608     -64.17544       675.05064    
   3893000   291.59574      0.036539744    7.9916524      723.45706     -63.281785      660.17527    
   3894000   304.25514      0.036539744    23.116552      754.86538     -56.760347      698.10503    
   3895000   299.78754      0.036539744    31.508834      743.78115     -57.954924      685.82622    
   3896000   307.77003      0.036539744    13.713824      763.58592     -62.245574      701.34035    
   3897000   292.00495      0.036539744    15.049965      724.47233     -61.793816      662.67851    
   3898000   299.72179      0.036539744    34.097099      743.61802     -57.578692      686.03933    
   3899000   309.62369      0.036539744    14.804073      768.18492     -62.060728      706.12419    
   3900000   289.98804      0.036539744    5.7143477      719.46832     -64.484086      654.98423    
   3901000   292.53349      0.036539744    25.999159      725.78364     -55.267042      670.5166     
   3902000   304.22362      0.036539744    31.747709      754.78718     -58.497623      696.28956    
   3903000   302.07966      0.036539744    10.423314      749.46796     -56.144158      693.3238     
   3904000   298.23278      0.036539744    15.94095       739.92375     -59.543802      680.37995    
   3905000   291.91542      0.036539744    30.571903      724.2502      -59.996062      664.25414    
   3906000   315.40826      0.036539744    19.483686      782.5366      -64.089541      718.44706    
   3907000   312.31369      0.036539744    22.634232      774.85888     -58.523581      716.3353     
   3908000   288.78185      0.036539744    17.9148        716.47574     -59.983743      656.49199    
   3909000   304.16664      0.036539744    14.269461      754.64582     -65.881275      688.76455    
   3910000   322.50423      0.036539744    30.136342      800.14188     -62.380249      737.76163    
   3911000   292.51693      0.036539744    25.595779      725.74256     -55.846688      669.89587    
   3912000   297.15631      0.036539744    16.14856       737.253       -62.631705      674.6213     
   3913000   301.2391       0.036539744    19.660855      747.3825      -65.240225      682.14227    
   3914000   293.27153      0.036539744    22.371069      727.61474     -61.100234      666.51451    
   3915000   307.78701      0.036539744    15.704348      763.62804     -60.254706      703.37334    
   3916000   306.2586       0.036539744    23.231885      759.83603     -59.067957      700.76808    
   3917000   296.39964      0.036539744    19.792238      735.37567     -62.321284      673.05438    
   3918000   303.423        0.036539744    12.317433      752.80082     -61.932105      690.86871    
   3919000   302.51218      0.036539744    22.03354       750.54107     -65.631312      684.90975    
   3920000   291.16372      0.036539744    22.259868      722.38523     -76.246545      646.13868    
   3921000   306.40106      0.036539744    15.344144      760.18947     -70.203047      689.98642    
   3922000   320.29457      0.036539744    17.450613      794.65965     -62.295115      732.36454    
   3923000   307.64477      0.036539744    16.786051      763.27516     -64.523738      698.75142    
   3924000   295.23632      0.036539744    17.945785      732.48946     -55.508647      676.98081    
   3925000   304.40429      0.036539744    17.143981      755.23543     -64.050217      691.18521    
   3926000   295.61285      0.036539744    20.464836      733.42363     -64.384041      669.03958    
   3927000   296.85117      0.036539744    18.700501      736.49593     -59.539564      676.95637    
   3928000   310.56856      0.036539744    19.653664      770.52916     -63.815021      706.71414    
   3929000   292.76751      0.036539744    16.875076      726.36427     -69.023672      657.34059    
   3930000   298.40546      0.036539744    15.143357      740.35218     -63.584506      676.76767    
   3931000   301.55749      0.036539744    18.912041      748.17244     -62.302431      685.87001    
   3932000   301.91446      0.036539744    21.20241       749.05811     -64.625698      684.43241    
   3933000   298.73041      0.036539744    17.934416      741.15839     -66.680247      674.47814    
   3934000   300.83287      0.036539744    12.041227      746.37464     -67.203151      679.17149    
   3935000   298.30379      0.036539744    17.251412      740.09992     -66.725443      673.37448    
   3936000   296.13322      0.036539744    18.019592      734.71468     -68.334722      666.37996    
   3937000   286.81996      0.036539744    17.1309        711.60822     -65.124201      646.48402    
   3938000   296.24928      0.036539744    27.129666      735.00263     -62.402875      672.59975    
   3939000   304.56549      0.036539744    21.166056      755.63539     -62.930509      692.70488    
   3940000   304.84005      0.036539744    17.813166      756.31656     -65.178787      691.13777    
   3941000   297.85965      0.036539744    16.118016      738.998       -60.697252      678.30074    
   3942000   304.84053      0.036539744    24.671025      756.31776     -59.228205      697.08956    
   3943000   306.70195      0.036539744    21.841777      760.93599     -58.107474      702.82851    
   3944000   285.16887      0.036539744    15.12075       707.51183     -53.066799      654.44503    
   3945000   292.24549      0.036539744    25.615763      725.06913     -53.809881      671.25925    
   3946000   297.13217      0.036539744    20.851695      737.1931      -48.50143       688.69167    
   3947000   305.53492      0.036539744    18.379586      758.04057     -56.5819        701.45867    
   3948000   294.76764      0.036539744    19.352645      731.32664     -52.304044      679.02259    
   3949000   291.39347      0.036539744    17.575549      722.95522     -56.77725       666.17797    
   3950000   308.32611      0.036539744    19.024738      764.96557     -58.789535      706.17604    
   3951000   316.52902      0.036539744    29.851908      785.31721     -63.560377      721.75684    
   3952000   281.70305      0.036539744    25.691636      698.91304     -68.254464      630.65858    
   3953000   299.50992      0.036539744    13.980235      743.09237     -67.501141      675.59122    
   3954000   309.86924      0.036539744    29.916054      768.79413     -59.450589      709.34354    
   3955000   295.11458      0.036539744    15.430889      732.18742     -60.475927      671.71149    
   3956000   296.31921      0.036539744    14.139356      735.17612     -53.38787       681.78825    
   3957000   307.26193      0.036539744    20.6548        762.32531     -52.158091      710.16722    
   3958000   294.2196       0.036539744    25.766373      729.96694     -53.024112      676.94283    
   3959000   288.82644      0.036539744    13.063687      716.58637     -45.64352       670.94285    
   3960000   304.86752      0.036539744    6.4999871      756.38473     -49.19595       707.18878    
   3961000   302.08785      0.036539744    20.284088      749.48827     -55.440072      694.0482     
   3962000   278.92776      0.036539744    21.533723      692.02747     -60.043854      631.98361    
   3963000   304.39912      0.036539744    16.194557      755.22261     -65.055817      690.16679    
   3964000   307.07558      0.036539744    18.558511      761.86297     -68.956643      692.90633    
   3965000   300.69942      0.036539744    14.731627      746.04355     -66.822663      679.22088    
   3966000   277.47316      0.036539744    14.281578      688.41856     -67.588627      620.82993    
   3967000   301.17391      0.036539744    24.459938      747.22076     -69.953316      677.26745    
   3968000   311.9721       0.036539744    19.619392      774.01139     -65.87894       708.13245    
   3969000   304.1759       0.036539744    14.133921      754.66878     -73.112854      681.55593    
   3970000   292.95629      0.036539744    23.019808      726.83262     -71.928573      654.90405    
   3971000   309.25872      0.036539744    21.213968      767.2794      -68.694529      698.58487    
   3972000   305.04931      0.036539744    19.160315      756.83573     -62.831372      694.00436    
   3973000   293.10647      0.036539744    18.713466      727.20522     -63.301239      663.90398    
   3974000   294.41917      0.036539744    18.964729      730.46207     -61.128209      669.33386    
   3975000   299.32092      0.036539744    23.316216      742.62345     -58.665106      683.95835    
   3976000   316.15157      0.036539744    19.390401      784.38075     -56.553572      727.82718    
   3977000   295.61613      0.036539744    14.118704      733.43177     -62.364363      671.0674     
   3978000   289.74325      0.036539744    18.055336      718.86099     -57.296249      661.56474    
   3979000   313.78359      0.036539744    20.734439      778.50573     -59.850465      718.65526    
   3980000   299.55825      0.036539744    18.686008      743.21228     -58.28482       684.92746    
   3981000   294.2049       0.036539744    20.574995      729.93047     -60.890149      669.04032    
   3982000   296.51868      0.036539744    20.863714      735.67102     -58.600425      677.07059    
   3983000   303.60348      0.036539744    17.957371      753.24861     -59.515125      693.73348    
   3984000   297.16012      0.036539744    21.746637      737.26245     -57.09348       680.16897    
   3985000   311.3253       0.036539744    19.985964      772.40665     -65.509386      706.89727    
   3986000   302.43897      0.036539744    16.775257      750.35942     -63.981381      686.37804    
   3987000   291.64482      0.036539744    17.733635      723.57883     -61.488917      662.08992    
   3988000   291.9462       0.036539744    17.776173      724.32658     -64.926591      659.39999    
   3989000   320.8328       0.036539744    19.504727      795.99501     -61.856761      734.13825    
   3990000   311.87367      0.036539744    15.871703      773.76718     -61.734953      712.03223    
   3991000   294.60426      0.036539744    17.698109      730.92129     -57.125797      673.7955     
   3992000   297.62907      0.036539744    20.314166      738.42592     -52.91562       685.5103     
   3993000   310.38299      0.036539744    21.835185      770.06876     -50.927705      719.14106    
   3994000   296.49129      0.036539744    17.428298      735.60306     -52.079483      683.52358    
   3995000   299.98983      0.036539744    23.588021      744.28303     -54.859358      689.42367    
   3996000   299.79211      0.036539744    16.174962      743.79249     -54.945525      688.84697    
   3997000   292.81348      0.036539744    16.832082      726.47833     -53.644432      672.83389    
   3998000   315.10339      0.036539744    20.338886      781.78019     -51.828845      729.95135    
   3999000   307.11276      0.036539744    22.944786      761.95522     -52.449875      709.50535    
   4000000   303.23885      0.036539744    28.940012      752.34393     -52.537602      699.80633    
Loop time of 5355.53 on 1 procs for 4000000 steps with 1500 atoms

Performance: 16.133 ns/day, 1.488 hours/ns, 746.892 timesteps/s, 1.120 Matom-step/s
100.0% CPU use with 1 MPI tasks x 1 OpenMP threads

MPI task timing breakdown:
Section |  min time  |  avg time  |  max time  |%varavg| %total
---------------------------------------------------------------
Pair    | 497.63     | 497.63     | 497.63     |   0.0 |  9.29
Bond    | 103.48     | 103.48     | 103.48     |   0.0 |  1.93
Kspace  | 4173.4     | 4173.4     | 4173.4     |   0.0 | 77.93
Neigh   | 0.030573   | 0.030573   | 0.030573   |   0.0 |  0.00
Comm    | 27.541     | 27.541     | 27.541     |   0.0 |  0.51
Output  | 0.1045     | 0.1045     | 0.1045     |   0.0 |  0.00
Modify  | 538.86     | 538.86     | 538.86     |   0.0 | 10.06
Other   |            | 14.45      |            |       |  0.27

Nlocal:           1500 ave        1500 max        1500 min
Histogram: 1 0 0 0 0 0 0 0 0 0
Nghost:           1631 ave        1631 max        1631 min
Histogram: 1 0 0 0 0 0 0 0 0 0
Neighs:              0 ave           0 max           0 min
Histogram: 1 0 0 0 0 0 0 0 0 0

Total # of neighbors = 0
Ave neighs/atom = 0
Ave special neighs/atom = 2
Neighbor list builds = 15843
Dangerous builds = 0
write_data	last_conf.data pair ij
System init for write_data ...
PPPM initialization ...
  using 12-bit tables for long-range coulomb (src/kspace.cpp:342)
  G vector (1/distance) = 0.17553521
  grid = 24 24 24
  stencil order = 5
  estimated absolute RMS force accuracy = 0.030437558
  estimated relative force accuracy = 9.1661803e-05
  using double precision FFTW3
  3d grid and FFT values/proc = 24389 13824
Generated 1 of 1 mixed pair_coeff terms from arithmetic mixing rule
Total wall time: 1:29:15
