LAMMPS data file via write_data, version 29 Aug 2024, timestep = 0, units = real

1500 atoms
2 atom types
1000 bonds
1 bond types
500 angles
1 angle types

0 149 xlo xhi
0 149 ylo yhi
0 149 zlo zhi

Masses

1 12.0107
2 15.9994

PairIJ Coeffs # lj/cut/coul/long/gpu

1 1 0.053649 2.8 12
1 2 0.0917684 2.925 12
2 2 0.156973 3.05 12

Bond Coeffs # harmonic

1 0 1.16

Angle Coeffs # harmonic

1 0 180

Atoms # full

1 1 1 0.7 10.977824038815603 42.28862037383421 14.842623031624884 0 0 0
2 1 2 -0.35 9.970163294573387 42.52630639946777 14.319435514828326 0 0 0
3 1 2 -0.35 11.985484783057819 42.050934348200656 15.365810548421441 0 0 0
4 2 1 0.7 33.965292519407946 35.67137368939415 101.77759764752238 0 0 0
5 2 2 -0.35 34.312612375537526 36.17194078020636 100.79047987079363 0 0 0
6 2 2 -0.35 33.617972663278366 35.17080659858194 102.76471542425114 0 0 0
7 3 1 0.7 56.08366190878845 24.10570100746383 13.516832444591834 0 0 0
8 3 2 -0.35 55.621053053835475 23.04193779262732 13.515899663915802 0 0 0
9 3 2 -0.35 56.546270763741425 25.169464222300338 13.517765225267867 0 0 0
10 4 1 0.7 101.4028962549767 16.477357393352946 92.9457100829788 0 0 0
11 4 2 -0.35 100.31783693721769 16.676401331504106 93.30435724612057 0 0 0
12 4 2 -0.35 102.4879555727357 16.278313455201786 92.58706291983704 0 0 0
13 5 1 0.7 22.5493646248008 80.17124902697805 31.18239641989693 0 0 0
14 5 2 -0.35 22.376705849756377 80.45622747649828 32.2935112792653 0 0 0
15 5 2 -0.35 22.72202339984522 79.88627057745781 30.071281560528554 0 0 0
16 6 1 0.7 49.53662920768216 99.12709351402107 60.06069015202145 0 0 0
17 6 2 -0.35 48.44915502329275 99.30065315921132 59.69616724759978 0 0 0
18 6 2 -0.35 50.624103392071575 98.95353386883082 60.42521305644312 0 0 0
19 7 1 0.7 114.01938502444857 34.80410590712172 127.60798099479078 0 0 0
20 7 2 -0.35 112.9980124248834 35.06678202336905 127.12486685629892 0 0 0
21 7 2 -0.35 115.04075762401374 34.541429790874396 128.09109513328264 0 0 0
22 8 1 0.7 1.336579448700221 113.89079430461433 108.57987765296356 0 0 0
23 8 2 -0.35 0.8616860489705175 114.90822658643772 108.87126710163463 0 0 0
24 8 2 -0.35 1.8114728484299243 112.87336202279094 108.28848820429249 0 0 0
25 9 1 0.7 99.00371335866103 72.41041901587063 118.91239973758924 0 0 0
26 9 2 -0.35 98.66295635561225 73.12243759102435 118.06239137674255 0 0 0
27 9 2 -0.35 99.34447036170981 71.69840044071691 119.76240809843593 0 0 0
28 10 1 0.7 23.702389662481096 89.06305731975617 28.80437314175273 0 0 0
29 10 2 -0.35 23.70896897245544 88.10351534553891 29.456167520675645 0 0 0
30 10 2 -0.35 23.69581035250675 90.02259929397343 28.152578762829815 0 0 0
31 11 1 0.7 14.099393438128473 58.505514625229644 51.18430623467281 0 0 0
32 11 2 -0.35 13.704982466575927 58.47633654638198 52.274805489708655 0 0 0
33 11 2 -0.35 14.493804409681019 58.53469270407731 50.093806979636966 0 0 0
34 12 1 0.7 77.63488614588738 16.531453929157674 108.14618735301597 0 0 0
35 12 2 -0.35 76.71554736726061 17.21486222043926 108.32886005902492 0 0 0
36 12 2 -0.35 78.55422492451414 15.848045637876087 107.96351464700703 0 0 0
37 13 1 0.7 110.97084213931619 53.94383548709743 118.04303164642445 0 0 0
38 13 2 -0.35 111.05581231613833 52.79299292908896 117.92495761995235 0 0 0
39 13 2 -0.35 110.88587196249405 55.0946780451059 118.16110567289655 0 0 0
40 14 1 0.7 14.232881455790663 67.03862747365545 129.211949727131 0 0 0
41 14 2 -0.35 13.531862050281605 66.69779552791096 130.07102212097203 0 0 0
42 14 2 -0.35 14.93390086129972 67.37945941939995 128.35287733329 0 0 0
43 15 1 0.7 139.23906389122786 145.94681986651702 90.2014965513728 0 0 0
44 15 2 -0.35 138.45242681401405 145.95293483467722 89.34899158604009 0 0 0
45 15 2 -0.35 140.02570096844167 145.9407048983568 91.05400151670551 0 0 0
46 16 1 0.7 90.55253892277952 30.52167515527535 119.79433471280818 0 0 0
47 16 2 -0.35 89.40301161915862 30.371499831879802 119.75390761208233 0 0 0
48 16 2 -0.35 91.70206622640042 30.671850478670898 119.83476181353403 0 0 0
49 17 1 0.7 95.38351816701868 19.78983308271963 39.72462126879237 0 0 0
50 17 2 -0.35 94.41179169704138 20.36152185256357 39.99760408506435 0 0 0
51 17 2 -0.35 96.35524463699598 19.218144312875687 39.451638452520385 0 0 0
52 18 1 0.7 131.70966459331552 100.3328198540643 60.703287258606075 0 0 0
53 18 2 -0.35 130.89402605642707 100.95460530750924 60.161330962372965 0 0 0
54 18 2 -0.35 132.52530313020398 99.71103440061935 61.245243554839185 0 0 0
55 19 1 0.7 37.14895539225496 52.49327762913577 25.517112884911295 0 0 0
56 19 2 -0.35 36.969214753746975 52.80489623089038 24.41430412999989 0 0 0
57 19 2 -0.35 37.32869603076295 52.18165902738116 26.6199216398227 0 0 0
58 20 1 0.7 44.11625670414244 37.926426521933834 7.450554141984579 0 0 0
59 20 2 -0.35 45.036715830573314 37.86173464550429 8.15352637308203 0 0 0
60 20 2 -0.35 43.19579757771156 37.991118398363376 6.747581910887128 0 0 0
61 21 1 0.7 61.46346433482294 148.4450753691816 60.38172983535646 0 0 0
62 21 2 -0.35 62.27310100595199 147.71660488414784 60.78100319184012 0 0 0
63 21 2 -0.35 60.65382766369388 0.1735458542153765 59.9824564788728 0 1 0
64 22 1 0.7 145.73334283602114 78.29304500729452 52.20743759917441 0 0 0
65 22 2 -0.35 144.80803782349133 77.60867160536107 52.06237319791336 0 0 0
66 22 2 -0.35 146.65864784855094 78.97741840922798 52.352502000435464 0 0 0
67 23 1 0.7 138.40372932441707 112.47875547757315 67.44331157181567 0 0 0
68 23 2 -0.35 139.16636806966355 113.07846701795832 66.80744349384844 0 0 0
69 23 2 -0.35 137.6410905791706 111.87904393718797 68.0791796497829 0 0 0
70 24 1 0.7 76.73758750582932 133.63321047352312 96.36842850286907 0 0 0
71 24 2 -0.35 75.91814979066939 134.37308728784643 96.72438373966192 0 0 0
72 24 2 -0.35 77.55702522098926 132.8933336591998 96.01247326607621 0 0 0
73 25 1 0.7 34.17784772029977 32.08663507834385 49.07576172523003 0 0 0
74 25 2 -0.35 33.13402705337158 31.60326881971173 48.92611054645228 0 0 0
75 25 2 -0.35 35.221668387227965 32.57000133697598 49.22541290400778 0 0 0
76 26 1 0.7 101.32731594113974 87.19902273556173 138.97511658583542 0 0 0
77 26 2 -0.35 100.24624979772236 87.4959310605837 138.6772215706215 0 0 0
78 26 2 -0.35 102.40838208455713 86.90211441053975 139.27301160104935 0 0 0
79 27 1 0.7 30.784458135619975 66.38788536488445 69.18932761307309 0 0 0
80 27 2 -0.35 29.93777351455589 66.31364879241144 68.39988851867693 0 0 0
81 27 2 -0.35 31.63114275668406 66.46212193735747 69.97876670746925 0 0 0
82 28 1 0.7 69.02919291939084 59.64539620170621 137.1739620762756 0 0 0
83 28 2 -0.35 68.19889619008705 60.19994851412254 137.7644526131186 0 0 0
84 28 2 -0.35 69.85948964869462 59.090843889289886 136.58347153943257 0 0 0
85 29 1 0.7 5.780615963870947 6.812504778994482 65.76782056026525 0 0 0
86 29 2 -0.35 4.621243289029402 6.8372986031711696 65.79680792153627 0 0 0
87 29 2 -0.35 6.939988638712491 6.787710954817794 65.73883319899423 0 0 0
88 30 1 0.7 77.76015637803829 35.94824568971444 136.16530703062438 0 0 0
89 30 2 -0.35 76.84033088870197 35.99728000174291 135.46024199432551 0 0 0
90 30 2 -0.35 78.67998186737461 35.89921137768597 136.87037206692324 0 0 0
91 31 1 0.7 39.31526370407793 105.63707443775473 107.31007534373089 0 0 0
92 31 2 -0.35 39.62744384571188 104.65153242537679 106.78390949439492 0 0 0
93 31 2 -0.35 39.003083562443976 106.62261645013268 107.83624119306685 0 0 0
94 32 1 0.7 64.43630208514459 48.92914502505639 21.14043612272499 0 0 0
95 32 2 -0.35 63.644930810680485 48.081690276880096 21.106495649149643 0 0 0
96 32 2 -0.35 65.22767335960869 49.77659977323269 21.174376596300334 0 0 0
97 33 1 0.7 91.30991463889829 94.73533596365495 2.791541148811365 0 0 0
98 33 2 -0.35 90.16878312680662 94.57197020202922 2.9208875830096335 0 0 0
99 33 2 -0.35 92.45104615098997 94.89870172528067 2.6621947146130966 0 0 0
100 34 1 0.7 131.43208807261294 54.104236405391354 131.90126541252306 0 0 0
101 34 2 -0.35 130.43347044933495 54.05182878653753 131.313374024625 0 0 0
102 34 2 -0.35 132.43070569589094 54.15664402424518 132.4891568004211 0 0 0
103 35 1 0.7 42.56778827522312 87.81754167509152 104.42293326296979 0 0 0
104 35 2 -0.35 41.42157671449726 87.99574376575582 104.41637026508282 0 0 0
105 35 2 -0.35 43.71399983594898 87.63933958442722 104.42949626085677 0 0 0
106 36 1 0.7 114.23935073345869 6.767777240261331 59.032077072203194 0 0 0
107 36 2 -0.35 113.2587179362022 6.21292904636009 59.30794442922364 0 0 0
108 36 2 -0.35 115.21998353071518 7.322625434162573 58.75620971518275 0 0 0
109 37 1 0.7 110.1193525191021 46.95778854887829 115.55214099751419 0 0 0
110 37 2 -0.35 108.96014585579815 46.9552095446039 115.50932440623615 0 0 0
111 37 2 -0.35 111.27855918240604 46.96036755315268 115.59495758879223 0 0 0
112 38 1 0.7 18.833745221064305 62.755930427813865 116.92270026771477 0 0 0
113 38 2 -0.35 18.876733330042008 63.365212612519855 115.936532309461 0 0 0
114 38 2 -0.35 18.790757112086602 62.146648243107876 117.90886822596855 0 0 0
115 39 1 0.7 107.82339948221268 49.875097548530945 125.76449815964536 0 0 0
116 39 2 -0.35 107.03481261780927 49.160526556637066 125.30284996585034 0 0 0
117 39 2 -0.35 108.61198634661609 50.589668540424825 126.22614635344037 0 0 0
118 40 1 0.7 9.920569159519193 4.005864039066185 127.55690458536003 0 0 0
119 40 2 -0.35 9.668890900027828 4.046444929978035 128.68854553769086 0 0 0
120 40 2 -0.35 10.172247419010558 3.965283148154335 126.42526363302922 0 0 0
121 41 1 0.7 36.895366146180486 111.41881885538753 133.0885024983848 0 0 0
122 41 2 -0.35 36.37433371544042 112.17154012939059 132.3760869667038 0 0 0
123 41 2 -0.35 37.41639857692055 110.66609758138446 133.8009180300658 0 0 0
124 42 1 0.7 30.461490353318624 2.268368226135321 129.46477665634117 0 0 0
125 42 2 -0.35 29.318870023176913 2.1018877430599083 129.5756956804165 0 0 0
126 42 2 -0.35 31.604110683460334 2.4348487092107334 129.35385763226586 0 0 0
127 43 1 0.7 67.50126312603301 7.729359236885495 128.34069433451663 0 0 0
128 43 2 -0.35 68.60632269804051 7.787125544053488 127.99269089190325 0 0 0
129 43 2 -0.35 66.3962035540255 7.671592929717502 128.68869777713 0 0 0
130 44 1 0.7 98.04968022091765 129.975472962938 8.774088099028026 0 0 0
131 44 2 -0.35 97.42890136526324 130.8577947696536 8.347776192360488 0 0 0
132 44 2 -0.35 98.67045907657206 129.0931511562224 9.200400005695563 0 0 0
133 45 1 0.7 105.09868036401396 147.52087798273232 23.396255782058585 0 0 0
134 45 2 -0.35 103.97671577461313 147.28888466533994 23.577844770755345 0 0 0
135 45 2 -0.35 106.22064495341479 147.7528713001247 23.214666793361825 0 0 0
136 46 1 0.7 9.870929058581092 63.70468757241252 119.68402953710594 0 0 0
137 46 2 -0.35 9.563180186132847 63.361958428082715 120.74865499478287 0 0 0
138 46 2 -0.35 10.178677931029338 64.04741671674232 118.61940407942902 0 0 0
139 47 1 0.7 29.48443013964427 119.81735700127547 35.319120436589756 0 0 0
140 47 2 -0.35 28.760820201889697 119.9656167613393 36.213551932864696 0 0 0
141 47 2 -0.35 30.208040077398845 119.66909724121163 34.424688940314816 0 0 0
142 48 1 0.7 141.45717776401767 26.786679845203963 74.72815834299111 0 0 0
143 48 2 -0.35 140.4471294167199 26.221702310655374 74.80691570186266 0 0 0
144 48 2 -0.35 142.46722611131545 27.351657379752552 74.64940098411955 0 0 0
145 49 1 0.7 35.15727065138392 103.24783780949555 32.41006419174842 0 0 0
146 49 2 -0.35 35.33744242259981 102.35710339295171 31.689140941990694 0 0 0
147 49 2 -0.35 34.97709888016803 104.13857222603939 33.13098744150614 0 0 0
148 50 1 0.7 120.94887071566137 129.670118120811 91.67525647053274 0 0 0
149 50 2 -0.35 120.27907860027034 128.87749810555982 92.19365017572528 0 0 0
150 50 2 -0.35 121.6186628310524 130.46273813606217 91.15686276534021 0 0 0
151 51 1 0.7 126.03550024378835 94.65259735083794 102.20367553327404 0 0 0
152 51 2 -0.35 125.21159047712726 95.20753597689047 102.80268790185704 0 0 0
153 51 2 -0.35 126.85941001044944 94.0976587247854 101.60466316469103 0 0 0
154 52 1 0.7 65.17468773674904 91.97679154108128 127.93543095324907 0 0 0
155 52 2 -0.35 65.12354127744489 90.8179513909774 127.94400686182287 0 0 0
156 52 2 -0.35 65.22583419605319 93.13563169118517 127.92685504467526 0 0 0
157 53 1 0.7 140.78803125712463 104.44133849369423 125.57606351914632 0 0 0
158 53 2 -0.35 139.74835989570482 104.36349380121806 125.06751296699171 0 0 0
159 53 2 -0.35 141.82770261854444 104.51918318617041 126.08461407130092 0 0 0
160 54 1 0.7 120.89956629225031 46.0106738512454 140.39541788138237 0 0 0
161 54 2 -0.35 120.17935601705553 46.88014224681996 140.66172948195745 0 0 0
162 54 2 -0.35 121.6197765674451 45.14120545567084 140.1291062808073 0 0 0
163 55 1 0.7 61.788332393294354 95.5025340982259 83.09058888260768 0 0 0
164 55 2 -0.35 60.96508863175071 95.33561231774067 83.89059315027075 0 0 0
165 55 2 -0.35 62.611576154838 95.66945587871112 82.2905846149446 0 0 0
166 56 1 0.7 75.52734998731286 57.17123676704766 124.97634377003476 0 0 0
167 56 2 -0.35 74.38829400174772 57.1163583909265 124.7638824192376 0 0 0
168 56 2 -0.35 76.666405972878 57.22611514316882 125.18880512083192 0 0 0
169 57 1 0.7 24.409742974401333 57.55017076318626 86.72001687144862 0 0 0
170 57 2 -0.35 23.301400899416546 57.61792625371172 86.38447695083995 0 0 0
171 57 2 -0.35 25.51808504938612 57.482415272660795 87.05555679205729 0 0 0
172 58 1 0.7 134.32355843685733 77.04664826115902 113.01732529980006 0 0 0
173 58 2 -0.35 134.69660622884774 76.03799360530162 113.45212540342042 0 0 0
174 58 2 -0.35 133.9505106448669 78.05530291701642 112.5825251961797 0 0 0
175 59 1 0.7 30.186313739598877 145.37502143828897 15.985313322853909 0 0 0
176 59 2 -0.35 29.93027668237801 144.31825699817608 15.581216869711154 0 0 0
177 59 2 -0.35 30.442350796819742 146.43178587840185 16.38940977599666 0 0 0
178 60 1 0.7 18.161017205641148 80.21617521076286 41.25676729122958 0 0 0
179 60 2 -0.35 17.141209477881162 79.95090751563784 40.771767035225444 0 0 0
180 60 2 -0.35 19.180824933401134 80.48144290588787 41.741767547233714 0 0 0
181 61 1 0.7 105.48786369547615 132.52512986749647 97.8576830135927 0 0 0
182 61 2 -0.35 104.41748828917648 132.81981872858677 98.1939194850501 0 0 0
183 61 2 -0.35 106.55823910177583 132.23044100640618 97.52144654213531 0 0 0
184 62 1 0.7 32.07840945249349 59.82766805814005 71.61705315979992 0 0 0
185 62 2 -0.35 32.64246224799624 60.638779175569056 72.22495380881142 0 0 0
186 62 2 -0.35 31.51435665699073 59.01655694071104 71.00915251078843 0 0 0
187 63 1 0.7 45.812456757208544 86.96071840401771 7.794216325876405 0 0 0
188 63 2 -0.35 44.74858795994342 87.3859078142605 7.612565155709357 0 0 0
189 63 2 -0.35 46.87632555447367 86.53552899377492 7.975867496043452 0 0 0
190 64 1 0.7 26.393789004717856 27.4118022929932 2.1611383367148873 0 0 0
191 64 2 -0.35 26.43403633438992 28.3189417060117 1.4392808453755492 0 0 0
192 64 2 -0.35 26.353541675045793 26.504662879974703 2.8829958280542254 0 0 0
193 65 1 0.7 115.25202516710945 40.78698360863467 106.83351032288442 0 0 0
194 65 2 -0.35 115.52203341939139 40.17317728595893 107.7800499902745 0 0 0
195 65 2 -0.35 114.98201691482751 41.40078993131041 105.88697065549434 0 0 0
196 66 1 0.7 100.80799671858921 1.0008493289355418 133.27467141965155 0 0 0
197 66 2 -0.35 100.06518931601798 1.227676888466968 132.4130529304567 0 0 0
198 66 2 -0.35 101.55080412116044 0.7740217694041157 134.1362899088464 0 0 0
199 67 1 0.7 30.40255008377254 54.659257965003725 73.14861781762383 0 0 0
200 67 2 -0.35 30.00632458246195 53.6679131247443 72.69492104685926 0 0 0
201 67 2 -0.35 30.798775585083128 55.65060280526315 73.6023145883884 0 0 0
202 68 1 0.7 9.819660803684807 96.03912753054831 12.616405925534854 0 0 0
203 68 2 -0.35 9.16496284503299 96.70483056039983 11.928067303210298 0 0 0
204 68 2 -0.35 10.474358762336623 95.3734245006968 13.30474454785941 0 0 0
205 69 1 0.7 16.9343904643014 26.300533513678488 99.06676439431811 0 0 0
206 69 2 -0.35 15.832021695203295 26.356743664735244 99.42344845036114 0 0 0
207 69 2 -0.35 18.036759233399508 26.24432336262173 98.71008033827509 0 0 0
208 70 1 0.7 89.10917530446741 58.90934218368928 133.31408126573734 0 0 0
209 70 2 -0.35 87.99540493562229 58.987458489388985 132.99941730487365 0 0 0
210 70 2 -0.35 90.22294567331254 58.83122587798958 133.62874522660104 0 0 0
211 71 1 0.7 96.76383324748083 123.74539041041648 46.77662786970689 0 0 0
212 71 2 -0.35 97.80715441806329 123.30631441793683 47.030188923188035 0 0 0
213 71 2 -0.35 95.72051207689837 124.18446640289612 46.52306681622575 0 0 0
214 72 1 0.7 50.78460616375534 64.87579423602475 134.4737248679035 0 0 0
215 72 2 -0.35 49.627361694847615 64.89407706214814 134.55151289687592 0 0 0
216 72 2 -0.35 51.94185063266307 64.85751140990135 134.3959368389311 0 0 0
217 73 1 0.7 67.89385485411336 50.01853308315321 3.485528555924785 0 0 0
218 73 2 -0.35 67.84196771358087 51.11250785570236 3.867794067936258 0 0 0
219 73 2 -0.35 67.94574199464584 48.924558310604056 3.1032630439133118 0 0 0
220 74 1 0.7 24.278439427855627 85.73146396956008 58.714936396439995 0 0 0
221 74 2 -0.35 23.129088682660292 85.82707918262264 58.590635971863364 0 0 0
222 74 2 -0.35 25.427790173050962 85.63584875649752 58.83923682101663 0 0 0
223 75 1 0.7 143.9360149670094 117.60355052752587 77.8737161270686 0 0 0
224 75 2 -0.35 143.39872509814447 116.911226620721 77.11371138702975 0 0 0
225 75 2 -0.35 144.47330483587436 118.29587443433074 78.63372086710746 0 0 0
226 76 1 0.7 7.546947642018528 42.54901940540831 70.36914669739508 0 0 0
227 76 2 -0.35 8.504361873944264 42.87768877500124 70.93565745104186 0 0 0
228 76 2 -0.35 6.589533410092794 42.22035003581538 69.8026359437483 0 0 0
229 77 1 0.7 81.24854311917375 108.26420395321409 8.475841669121683 0 0 0
230 77 2 -0.35 80.42901260053114 108.86971117496775 7.921467487347727 0 0 0
231 77 2 -0.35 82.06807363781635 107.65869673146044 9.03021585089564 0 0 0
232 78 1 0.7 9.47093292813326 45.96972313568449 48.13674144918879 0 0 0
233 78 2 -0.35 9.606885516679434 45.46246472015548 47.10242728340424 0 0 0
234 78 2 -0.35 9.334980339587087 46.4769815512135 49.17105561497334 0 0 0
235 79 1 0.7 113.21353651593138 49.90822325875434 86.50830988423354 0 0 0
236 79 2 -0.35 112.30059942684319 49.284406184334244 86.15759899328613 0 0 0
237 79 2 -0.35 114.12647360501957 50.532040333174436 86.85902077518095 0 0 0
238 80 1 0.7 3.164224313182861 137.11803166434078 108.75818257534792 0 0 0
239 80 2 -0.35 4.099333662113883 136.52491723339057 109.10370504544271 0 0 0
240 80 2 -0.35 2.2291149642518384 137.71114609529099 108.41266010525312 0 0 0
241 81 1 0.7 115.77454387246378 31.758864498584934 53.23562771698256 0 0 0
242 81 2 -0.35 115.03054014514292 32.59465181830662 53.54143486196957 0 0 0
243 81 2 -0.35 116.51854759978464 30.923077178863245 52.929820571995556 0 0 0
244 82 1 0.7 135.19503932595023 122.02595124534609 54.16258053163187 0 0 0
245 82 2 -0.35 135.470438173752 120.98625354501017 54.59707353105266 0 0 0
246 82 2 -0.35 134.91964047814847 123.06564894568201 53.72808753221108 0 0 0
247 83 1 0.7 69.49099513678392 73.15526392737183 121.52082733834202 0 0 0
248 83 2 -0.35 68.60771747506668 73.2038878451475 120.77045657203281 0 0 0
249 83 2 -0.35 70.37427279850117 73.10664000959616 122.27119810465122 0 0 0
250 84 1 0.7 57.54507551414197 1.084166184106919 43.5810562849888 0 0 0
251 84 2 -0.35 58.69618192437415 0.9408309040595142 43.57805131974429 0 0 0
252 84 2 -0.35 56.39396910390979 1.2275014641543238 43.584061250233304 0 0 0
253 85 1 0.7 131.81298180660838 48.78522366694418 135.25417033082533 0 0 0
254 85 2 -0.35 132.7189594215278 48.10512386170872 135.00463312681842 0 0 0
255 85 2 -0.35 130.90700419168894 49.465323472179634 135.50370753483224 0 0 0
256 86 1 0.7 72.84075018150767 50.48830059938519 1.8681738669370178 0 0 0
257 86 2 -0.35 72.20539952585632 50.80344085901553 2.7861151292863693 0 0 0
258 86 2 -0.35 73.47610083715902 50.17316033975485 0.9502326045876663 0 0 0
259 87 1 0.7 108.39818161046047 25.238327009248696 126.56204444289303 0 0 0
260 87 2 -0.35 108.08474617958731 24.729288180520616 127.55614589723282 0 0 0
261 87 2 -0.35 108.71161704133362 25.747365837976776 125.56794298855323 0 0 0
262 88 1 0.7 4.280951703098115 131.95527397000942 56.28961394833849 0 0 0
263 88 2 -0.35 4.285602429596653 131.69641693947815 55.15887462891621 0 0 0
264 88 2 -0.35 4.276300976599576 132.21413100054068 57.420353267760774 0 0 0
265 89 1 0.7 58.54162972492242 62.17078677107151 116.41326139886549 0 0 0
266 89 2 -0.35 57.765535064817016 62.663451591197884 115.70575984157693 0 0 0
267 89 2 -0.35 59.31772438502783 61.67812195094514 117.12076295615404 0 0 0
268 90 1 0.7 38.68433073241465 80.54661969307186 82.03718145891892 0 0 0
269 90 2 -0.35 39.43846860665527 79.77086499197841 82.45560792840578 0 0 0
270 90 2 -0.35 37.93019285817403 81.32237439416531 81.61875498943206 0 0 0
271 91 1 0.7 101.9087800504215 25.866307434098005 102.02904488520187 0 0 0
272 91 2 -0.35 100.90276205680524 25.667815051298525 101.48670866984196 0 0 0
273 91 2 -0.35 102.91479804403775 26.064799816897484 102.57138110056178 0 0 0
274 92 1 0.7 110.15738558776555 90.17957357558402 20.093084840612992 0 0 0
275 92 2 -0.35 109.2714058965635 89.88707616564183 20.78234912371101 0 0 0
276 92 2 -0.35 111.0433652789676 90.4720709855262 19.403820557514972 0 0 0
277 93 1 0.7 70.47691618254265 104.53027999425785 130.41586349178843 0 0 0
278 93 2 -0.35 69.31792015998379 104.48309167836874 130.42593734588138 0 0 0
279 93 2 -0.35 71.63591220510152 104.57746831014697 130.40578963769548 0 0 0
280 94 1 0.7 109.41770648836052 25.392949875161495 43.308551839230844 0 0 0
281 94 2 -0.35 109.50716154663267 24.730652627427173 44.25668692886368 0 0 0
282 94 2 -0.35 109.32825143008837 26.055247122895818 42.36041674959801 0 0 0
283 95 1 0.7 21.830761952712557 71.6161392399185 30.45220531032058 0 0 0
284 95 2 -0.35 20.67987018289623 71.47744545509023 30.49477487948749 0 0 0
285 95 2 -0.35 22.981653722528883 71.75483302474676 30.409635741153668 0 0 0
286 96 1 0.7 144.21465055794206 32.6319273322038 124.8026723492903 0 0 0
287 96 2 -0.35 143.59646977771035 32.967053251201996 125.72524654217005 0 0 0
288 96 2 -0.35 144.83283133817378 32.29680141320561 123.88009815641055 0 0 0
289 97 1 0.7 85.51417452214015 131.73119360941052 15.170993362633043 0 0 0
290 97 2 -0.35 85.50617687364964 132.1926612958029 14.106764246307861 0 0 0
291 97 2 -0.35 85.52217217063067 131.26972592301814 16.235222478958224 0 0 0
292 98 1 0.7 39.88544577354819 3.687116024404353 134.35902216395317 0 0 0
293 98 2 -0.35 39.59399536548921 3.1033590841269496 135.31812825522786 0 0 0
294 98 2 -0.35 40.17689618160718 4.2708729646817565 133.39991607267848 0 0 0
295 99 1 0.7 77.08550956104207 21.15919243412055 108.54724026403727 0 0 0
296 99 2 -0.35 75.98820794346386 20.88354063340811 108.2912222083767 0 0 0
297 99 2 -0.35 78.18281117862028 21.434844234832987 108.80325831969785 0 0 0
298 100 1 0.7 146.4671176744006 43.84675365120487 127.38861580024874 0 0 0
299 100 2 -0.35 146.19952715471942 44.963627172103664 127.22555491563236 0 0 0
300 100 2 -0.35 146.7347081940818 42.72988013030608 127.55167668486513 0 0 0
301 101 1 0.7 39.465754780669585 101.94059871367206 113.64258068643632 0 0 0
302 101 2 -0.35 38.59461867757717 101.84523074082823 112.88256302898051 0 0 0
303 101 2 -0.35 40.336890883762 102.03596668651589 114.40259834389212 0 0 0
304 102 1 0.7 108.85359693498052 80.40368621768602 63.75426064885886 0 0 0
305 102 2 -0.35 109.94891736580739 80.7855352436623 63.74623100539161 0 0 0
306 102 2 -0.35 107.75827650415364 80.02183719170974 63.762290292326114 0 0 0
307 103 1 0.7 58.858725370773456 27.597306589408458 139.93184818789913 0 0 0
308 103 2 -0.35 57.83262219141021 27.05762806951508 139.89364661114726 0 0 0
309 103 2 -0.35 59.8848285501367 28.136985109301836 139.970049764651 0 0 0
310 104 1 0.7 18.572494020952142 141.90701014264815 137.1194674871487 0 0 0
311 104 2 -0.35 17.412899162898547 141.9288502580843 137.0979552921561 0 0 0
312 104 2 -0.35 19.732088879005737 141.88517002721198 137.14097968214134 0 0 0
313 105 1 0.7 132.8900565080764 122.17973124011408 105.74295259720783 0 0 0
314 105 2 -0.35 132.01011330864517 122.82578999161682 105.35064142558328 0 0 0
315 105 2 -0.35 133.76999970750765 121.53367248861134 106.13526376883239 0 0 0
316 106 1 0.7 98.80430127205528 147.89147943299798 143.094830397095 0 0 0
317 106 2 -0.35 97.67427219858945 147.81290561481126 142.84490951317872 0 0 0
318 106 2 -0.35 99.93433034552112 147.9700532511847 143.34475128101127 0 0 0
319 107 1 0.7 134.81448397543954 133.03217521264784 126.76879897237235 0 0 0
320 107 2 -0.35 135.51347648861667 132.11469717234795 126.89226359114957 0 0 0
321 107 2 -0.35 134.1154914622624 133.94965325294774 126.64533435359513 0 0 0
322 108 1 0.7 52.20432866187967 86.15182021174199 120.64229874761881 0 0 0
323 108 2 -0.35 53.3553814664105 86.19614679439336 120.77909273598145 0 0 0
324 108 2 -0.35 51.053275857348844 86.10749362909063 120.50550475925617 0 0 0
325 109 1 0.7 43.115051229537954 47.66601484439616 98.71148976623616 0 0 0
326 109 2 -0.35 41.96714356892115 47.76721231049411 98.578572214526 0 0 0
327 109 2 -0.35 44.262958890154756 47.56481737829821 98.8444073179463 0 0 0
328 110 1 0.7 78.00850113109149 37.87851025484433 96.12185316864486 0 0 0
329 110 2 -0.35 78.77974390866416 38.64372665494077 96.52833618067052 0 0 0
330 110 2 -0.35 77.23725835351883 37.11329385474789 95.7153701566192 0 0 0
331 111 1 0.7 61.98620541439681 143.1543997671243 92.99688605777774 0 0 0
332 111 2 -0.35 61.14735364760654 143.4471578290532 93.74268792860435 0 0 0
333 111 2 -0.35 62.82505718118707 142.86164170519538 92.25108418695113 0 0 0
334 112 1 0.7 137.6639730705246 46.3953963072949 50.425736705505166 0 0 0
335 112 2 -0.35 136.78874281100772 45.680575862930574 50.68765983381723 0 0 0
336 112 2 -0.35 138.5392033300415 47.11021675165923 50.1638135771931 0 0 0
337 113 1 0.7 142.3568094253339 97.89601158671827 80.26673797390738 0 0 0
338 113 2 -0.35 141.3646582543884 98.47277350117346 80.43579934745398 0 0 0
339 113 2 -0.35 143.3489605962794 97.31924967226308 80.09767660036078 0 0 0
340 114 1 0.7 146.06512746124767 141.59724118960892 145.83267375725913 0 0 0
341 114 2 -0.35 144.98246989192714 141.33487191360877 145.50923141215858 0 0 0
342 114 2 -0.35 147.1477850305682 141.85961046560908 146.15611610235968 0 0 0
343 115 1 0.7 108.74783825396925 90.91753446120654 56.00168949831356 0 0 0
344 115 2 -0.35 109.66146313498838 91.05188090713256 55.29966342383355 0 0 0
345 115 2 -0.35 107.83421337295012 90.78318801528053 56.70371557279357 0 0 0
346 116 1 0.7 136.3953981559702 32.456807391465084 12.561828353703874 0 0 0
347 116 2 -0.35 136.62447741847868 31.381775045696564 12.191115328521299 0 0 0
348 116 2 -0.35 136.16631889346175 33.531839737233604 12.932541378886448 0 0 0
349 117 1 0.7 142.64914070100016 94.10776171000104 34.15105998755948 0 0 0
350 117 2 -0.35 142.83966466314303 93.99607954490496 33.01227655167325 0 0 0
351 117 2 -0.35 142.4586167388573 94.21944387509713 35.2898434234457 0 0 0
352 118 1 0.7 28.865210912127612 142.59980012876903 9.840764221195489 0 0 0
353 118 2 -0.35 27.710619075226305 142.67259252802646 9.925728665354308 0 0 0
354 118 2 -0.35 30.01980274902892 142.5270077295116 9.75579977703667 0 0 0
355 119 1 0.7 3.7242656325568753 13.732486383399221 0.8986457907122773 0 0 0
356 119 2 -0.35 4.721361356343995 14.159102680497131 1.3102264664684498 0 0 0
357 119 2 -0.35 2.727169908769756 13.305870086301312 0.48706511495610505 0 0 0
358 120 1 0.7 54.5398045012447 2.494252419795027 51.90041949502212 0 0 0
359 120 2 -0.35 53.887751115540425 1.6098305095235665 52.27220473790216 0 0 0
360 120 2 -0.35 55.19185788694898 3.3786743300664877 51.52863425214208 0 0 0
361 121 1 0.7 44.35045283676612 100.06082752815486 108.32826569877949 0 0 0
362 121 2 -0.35 43.30511341319426 99.58004425174536 108.4756187803605 0 0 0
363 121 2 -0.35 45.39579226033797 100.54161080456436 108.18091261719847 0 0 0
364 122 1 0.7 42.161599387024346 115.00089771812824 141.08794858124477 0 0 0
365 122 2 -0.35 41.2084560829968 114.4106555071235 140.79006945418874 0 0 0
366 122 2 -0.35 43.114742691051894 115.59113992913299 141.3858277083008 0 0 0
367 123 1 0.7 79.15180498089259 32.386313861881526 19.777076642856503 0 0 0
368 123 2 -0.35 79.14281310521679 32.92069540945106 18.7475352363123 0 0 0
369 123 2 -0.35 79.1607968565684 31.851932314311988 20.806618049400708 0 0 0
370 124 1 0.7 123.32713648924937 20.182974814056873 91.25769985386063 0 0 0
371 124 2 -0.35 122.17505896127341 20.280114719935277 91.35194001631133 0 0 0
372 124 2 -0.35 124.47921401722533 20.08583490817847 91.16345969140993 0 0 0
373 125 1 0.7 111.16144383566521 128.38654602523266 123.67904608542055 0 0 0
374 125 2 -0.35 110.28247433882699 128.76623852216278 123.02418256421714 0 0 0
375 125 2 -0.35 112.04041333250343 128.00685352830254 124.33390960662396 0 0 0
376 126 1 0.7 123.72755766321326 45.06164562518785 133.07802253220137 0 0 0
377 126 2 -0.35 123.08342502627222 44.16608958626415 133.43673206256636 0 0 0
378 126 2 -0.35 124.3716903001543 45.95720166411155 132.71931300183638 0 0 0
379 127 1 0.7 3.324698708637012 3.2111960622534137 32.57221829312491 0 0 0
380 127 2 -0.35 2.9742365783058675 4.160979843609652 33.13851067686003 0 0 0
381 127 2 -0.35 3.6751608389681563 2.2614122808971757 32.005925909389795 0 0 0
382 128 1 0.7 15.27285255038778 112.83281436741018 58.111073062806895 0 0 0
383 128 2 -0.35 14.36441375677136 112.30879897844589 57.61534447740824 0 0 0
384 128 2 -0.35 16.1812913440042 113.35682975637447 58.60680164820555 0 0 0
385 129 1 0.7 126.80496659539872 64.07356886615676 61.47193349687007 0 0 0
386 129 2 -0.35 125.74446263544188 64.53837544933019 61.54183479266976 0 0 0
387 129 2 -0.35 127.86547055535557 63.608762282983335 61.402032201070384 0 0 0
388 130 1 0.7 141.78628189525858 45.03981361120931 64.1473635948018 0 0 0
389 130 2 -0.35 140.71644256776784 44.81361813627898 63.76022095897462 0 0 0
390 130 2 -0.35 142.85612122274932 45.26600908613964 64.53450623062899 0 0 0
391 131 1 0.7 109.7399378338549 77.13517359929865 110.86268341255499 0 0 0
392 131 2 -0.35 109.00991020863731 76.34581930016358 111.29809064361133 0 0 0