LAMMPS data file via write_data, version 29 Aug 2024, timestep = 4000000, units = real

1500 atoms
2 atom types
1000 bonds
1 bond types
500 angles
1 angle types

0 149 xlo xhi
0 149 ylo yhi
0 149 zlo zhi

Masses

1 12.0107
2 15.9994

PairIJ Coeffs # lj/cut/coul/long/gpu

1 1 0.053649 2.8 12
1 2 0.0917684 2.925 12
2 2 0.156973 3.05 12

Bond Coeffs # harmonic

1 0 1.16

Angle Coeffs # harmonic

1 0 180

Atoms # full

896 299 2 -0.35 6.610306068352757 21.360976647517557 18.74187368465828 7 5 0
895 299 1 0.7 5.822787806629283 22.060594027573867 18.25612631309911 7 5 0
897 299 2 -0.35 5.035269544905811 22.760211407630177 17.77037894153994 7 5 0
306 102 2 -0.35 59.33429048576873 20.646048877172092 18.270906788989464 1 1 2
304 102 1 0.7 58.573166101042084 20.45407131000439 19.124976039506294 1 1 2
305 102 2 -0.35 57.81204171631543 20.26209374283669 19.979045290023127 1 1 2
1437 479 2 -0.35 58.899249913624665 15.883082574955841 18.01890441795202 -5 -2 2
1435 479 1 0.7 58.48517253068532 16.4165698704201 18.96205404898374 -5 -2 2
1436 479 2 -0.35 58.07109514774597 16.95005716588436 19.905203680015465 -5 -2 2
233 78 2 -0.35 100.84380706878545 18.5331498917773 7.70134343437177 3 7 -4
232 78 1 0.7 101.61275572929424 19.380310411911143 7.509935465291439 3 7 -4
234 78 2 -0.35 102.38170438980303 20.227470932044984 7.318527496211107 3 7 -4
563 188 2 -0.35 119.1994853939868 8.225500838624175 5.192321520052047 -2 2 -1
562 188 1 0.7 118.66538973195925 7.1959349016905385 5.210646511438913 -2 2 -1
564 188 2 -0.35 118.1312940699317 6.166368964756902 5.22897150282578 -2 2 -1
287 96 2 -0.35 120.21358286101291 22.780314148626292 5.5067114378342055 -3 -8 -3
531 177 2 -0.35 109.23948809233657 22.549835392009786 10.019770820346835 -9 -1 5
286 96 1 0.7 121.18862981411075 23.232753949912233 5.942809666981409 -3 -8 -3
529 177 1 0.7 109.15427910227285 23.481470678104078 9.333917248714862 -9 -1 5
288 96 2 -0.35 122.1636767672086 23.68519375119817 6.378907896128613 -3 -8 -3
530 177 2 -0.35 109.06907011220913 24.413105964198373 8.648063677082888 -9 -1 5
1467 489 2 -0.35 102.72469604851312 8.89653281014729 22.656769390537615 -2 -1 2
1465 489 1 0.7 101.75979928979832 8.788157733068923 23.291457572001818 -2 -1 2
1466 489 2 -0.35 100.79490253108352 8.679782655990556 23.92614575346602 -2 -1 2
201 67 2 -0.35 111.09528994329865 17.784006103024957 7.3901098170802095 6 1 -2
199 67 1 0.7 110.60894075391172 18.836567365565347 7.355769540696378 6 1 -2
200 67 2 -0.35 110.1225915645248 19.889128628105738 7.321429264312546 6 1 -2
1067 356 2 -0.35 101.38986317707901 2.8876368455328727 17.490408473978516 -3 1 -1
1066 356 1 0.7 101.96190555931753 3.219734471169827 16.53747685000487 -3 1 -1
1068 356 2 -0.35 102.53394794155606 3.551832096806781 15.58454522603123 -3 1 -1
1023 341 2 -0.35 112.24151263387668 5.290623556226846 18.29109079100424 -2 0 1
1021 341 1 0.7 112.79832515528057 5.479472027065643 17.291142756819614 -2 0 1
1022 341 2 -0.35 113.35513767668445 5.668320497904439 16.291194722634994 -2 0 1
241 81 1 0.7 117.31769979109684 24.029825486931834 2.234975463718645 -2 -3 -5
242 81 2 -0.35 116.24606341877177 23.971534459842523 1.7947509282035954 -2 -3 -5
243 81 2 -0.35 118.3893361634219 24.08811651402115 2.6751999992336954 -2 -3 -5
1315 439 1 0.7 123.75660819120365 22.62211252038339 148.84111073767698 -4 -3 -5
1316 439 2 -0.35 123.80113494958017 22.502781699938335 0.9940970875873938 -4 -3 -4
19 7 1 0.7 129.2545115314935 15.90404567086089 16.762696121392786 3 0 0
20 7 2 -0.35 128.98957238539433 17.03049942965256 16.682016643392377 3 0 0
365 122 2 -0.35 126.83105628525367 18.611903898534436 9.836422312672706 0 -2 -8
21 7 2 -0.35 129.5194506775927 14.777591912069221 16.843375599393198 3 0 0
364 122 1 0.7 127.16207020327708 18.20346220431493 8.802398537076126 0 -2 -8
366 122 2 -0.35 127.49308412130048 17.79502051009543 7.768374761479545 0 -2 -8
713 238 2 -0.35 5.994851380328357 47.976672172055146 19.446955867589196 10 1 -7
712 238 1 0.7 5.366058233539509 47.184160245080676 18.87937853880189 10 1 -7
714 238 2 -0.35 4.737265086750662 46.391648318106206 18.311801210014586 10 1 -7
1410 470 2 -0.35 2.2397204951729686 35.66493691160165 20.34902096133977 -2 4 -3
1408 470 1 0.7 2.6682822389642578 36.73343074708217 20.20669824600227 -2 4 -3
1409 470 2 -0.35 3.0968439827555474 37.80192458256268 20.064375530664766 -2 4 -3
1001 334 2 -0.35 36.72725020455352 41.33045756921793 3.0943073476095644 3 -1 -3
1000 334 1 0.7 36.906363132669085 40.26494459528425 2.6721691458806145 3 -1 -3
1002 334 2 -0.35 37.08547606078465 39.19943162135057 2.2500309441516646 3 -1 -3
673 225 1 0.7 38.25905051024437 41.09425922887856 8.060740662815117 0 1 4
674 225 2 -0.35 38.15034141638099 41.233986765897 6.914329502580733 0 1 4
675 225 2 -0.35 38.36775960410776 40.95453169186013 9.207151823049504 0 1 4
818 273 2 -0.35 52.90620793352816 45.36509040554206 5.466360958327595 8 6 6
817 273 1 0.7 53.009381099237814 45.30627531565539 4.312456246888984 8 6 6
819 273 2 -0.35 53.11255426494747 45.24746022576872 3.158551535450373 8 6 6
1032 344 2 -0.35 81.72242372702152 42.83428678051735 12.254111735458824 -2 -2 3
1030 344 1 0.7 81.59496698894733 41.75623773742332 11.845253519686644 -2 -2 3
1031 344 2 -0.35 81.46751025087315 40.678188694329286 11.43639530391446 -2 -2 3
736 246 1 0.7 99.26465562279178 38.79529405590053 5.746276451108384 -1 -3 0
738 246 2 -0.35 99.79979137194645 38.60149334999496 4.735499019441317 -1 -3 0
737 246 2 -0.35 98.7295198736371 38.98909476180609 6.757053882775452 -1 -3 0
1088 363 2 -0.35 117.65706757820757 37.618351193616526 13.732985414036676 -3 -3 -3
1087 363 1 0.7 117.27456591005978 37.40888436990939 12.658082570226 -3 -3 -3
1089 363 2 -0.35 116.89206424191197 37.19941754620225 11.583179726415326 -3 -3 -3
968 323 2 -0.35 114.70143343905313 39.57798604685612 4.764110975250109 0 0 2
967 323 1 0.7 114.52929316067868 38.81738719878143 3.905357741272416 0 0 2
969 323 2 -0.35 114.3571528823042 38.056788350706746 3.0466045072947234 0 0 2
1227 409 2 -0.35 134.71738597605835 34.97547707021331 8.62186916363868 3 -1 2
1225 409 1 0.7 133.7952655518554 34.34789563308519 8.940358508894246 3 -1 2
1226 409 2 -0.35 132.8731451276525 33.720314195957066 9.25884785414981 3 -1 2
1126 376 1 0.7 143.96258707457133 36.97278673929891 25.039516325689206 -4 2 -5
477 159 2 -0.35 130.0972785378444 42.683386737602376 3.1410374977962228 -3 -1 2
475 159 1 0.7 130.2890382760878 42.48328308454292 2.014633160614099 -3 -1 2
476 159 2 -0.35 130.48079801433124 42.28317943148346 0.8882288234319748 -3 -1 2
1127 376 2 -0.35 143.61792404279754 37.19728952763429 23.954893860239867 -4 2 -5
87 29 2 -0.35 10.839692808469371 69.34369888305837 18.794247356671544 1 -4 5
85 29 1 0.7 11.1636577617306 70.45575922624603 18.73125130785483 1 -4 5
86 29 2 -0.35 11.487622714991828 71.5678195694337 18.668255259038112 1 -4 5
925 309 1 0.7 13.447070226455496 65.99084544661468 11.749542533863604 3 2 4
926 309 2 -0.35 12.727551192419048 65.38464040435198 12.428076104437398 3 2 4
927 309 2 -0.35 14.166589260491946 66.59705048887739 11.071008963289811 3 2 4
556 186 1 0.7 24.30478965336596 66.50497616719652 10.946011640069145 0 -4 10
557 186 2 -0.35 24.06917184875246 66.87969928632752 12.018236818907864 0 -4 10
558 186 2 -0.35 24.540407457979462 66.13025304806551 9.873786461230425 0 -4 10
1473 491 2 -0.35 35.9468858796328 65.86406650091122 1.4648107997689939 -9 -5 -3
1472 491 2 -0.35 33.707576071421144 65.35613395050206 1.7963166173363732 -9 -5 -3
1471 491 1 0.7 34.82723097552697 65.61010022570663 1.6305637085526836 -9 -5 -3
29 10 2 -0.35 41.076286052679976 66.17963670493313 1.2801724793680047 -2 1 -1
28 10 1 0.7 40.379508896915844 65.2649358488381 1.4332212920546579 -2 1 -1
30 10 2 -0.35 39.68273174115172 64.3502349927431 1.586270104741311 -2 1 -1
1382 461 2 -0.35 34.28422942928806 73.92756299686134 4.7273480088256195 0 -4 -1
1381 461 1 0.7 33.798017051457634 73.03243581775041 4.1724202145478415 0 -4 -1
1383 461 2 -0.35 33.311804673627215 72.13730863863947 3.617492420270063 0 -4 -1
703 235 1 0.7 56.02272381632013 57.743601281030514 25.231813444381785 -1 2 2
704 235 2 -0.35 56.904040277783906 58.48049258892368 25.07096415123966 -1 2 2
93 31 2 -0.35 68.0652860291175 67.6576568888421 22.531766218524822 0 0 -2
91 31 1 0.7 68.2766459785367 66.85188821873889 21.72450924452977 0 0 -2
92 31 2 -0.35 68.48800592795591 66.04611954863569 20.917252270534718 0 0 -2
747 249 2 -0.35 61.204585434091015 69.53812583700666 10.720190149880017 0 2 1
746 249 2 -0.35 62.56084245264522 70.99241904220405 9.525201374645386 0 2 1
745 249 1 0.7 61.88271394336812 70.26527243960535 10.1226957622627 0 2 1
80 27 2 -0.35 63.7500360292518 67.01961911684906 4.616219209917254 4 1 0
79 27 1 0.7 63.588317464058846 68.12215157724908 4.29393163734535 4 1 0
81 27 2 -0.35 63.42659889886589 69.2246840376491 3.9716440647734474 4 1 0
1280 427 2 -0.35 77.45814383697581 70.87949687400612 6.361400501325909 -5 0 0
1279 427 1 0.7 77.17716326538469 70.28700601137743 5.404528254842133 -5 0 0
1281 427 2 -0.35 76.89618269379356 69.69451514874874 4.447656008358356 -5 0 0
1211 404 2 -0.35 78.0130172932846 65.04579755660342 14.607042936803898 -7 0 4
1210 404 1 0.7 77.5823885927385 64.19649090891788 15.269490776609397 -7 0 4
1212 404 2 -0.35 77.1517598921924 63.34718426123233 15.931938616414897 -7 0 4
616 206 1 0.7 83.11584775402991 72.94296076092364 18.33926837658529 -6 -3 -5
617 206 2 -0.35 82.89830922707087 73.72866563161914 17.514074553624415 -6 -3 -5
618 206 2 -0.35 83.33338628098898 72.15725589022814 19.164462199546165 -6 -3 -5
1294 432 1 0.7 93.65294820257665 52.095826408366776 7.676658447716293 -5 5 3
1295 432 2 -0.35 92.99319032967337 53.01107900517145 7.946162127070278 -5 5 3
1083 361 2 -0.35 95.32101572968422 59.824065087468014 13.806145567737223 -2 -8 1
1081 361 1 0.7 95.63783762173644 59.02641246201078 13.025777591832597 -2 -8 1
1296 432 2 -0.35 94.31270607547994 51.180573811562105 7.407154768362308 -5 5 3
1082 361 2 -0.35 95.95465951378866 58.22875983655355 12.24540961592797 -2 -8 1
1394 465 2 -0.35 79.08989110281377 66.44374707067276 2.2742549247626984 -7 -7 -3
1393 465 1 0.7 78.77571127314229 65.98381632551461 1.256731094925034 -7 -7 -3
759 253 2 -0.35 143.3543296832878 66.22828119026065 16.31380767364409 13 -2 5
757 253 1 0.7 144.44455310807444 66.26841738584454 16.708018239019513 13 -2 5
1262 421 2 -0.35 137.30255948913776 56.447082764116246 15.295541756180322 -4 -4 -7
758 253 2 -0.35 145.5347765328611 66.30855358142846 17.102228804394933 13 -2 5
1263 421 2 -0.35 136.7133116996932 55.830932339736485 13.137870396317165 -4 -4 -7
1261 421 1 0.7 137.00793559441547 56.13900755192637 14.216706076248743 -4 -4 -7
1250 417 2 -0.35 146.39941954876028 52.27050879405877 24.642388308059125 8 2 5
1177 393 1 0.7 2.7609252333042877 90.78816427130842 6.360882053387869 3 2 1
1179 393 2 -0.35 2.5511123380658463 90.57432650591893 7.481530061947017 3 2 1
1178 393 2 -0.35 2.9707381285427292 91.0020020366979 5.240234044828722 3 2 1
1403 468 2 -0.35 9.408192567381139 97.8464443812471 11.457457086516106 1 -6 -5
1402 468 1 0.7 8.404761836221306 97.72940159708017 12.027569140798176 1 -6 -5
1404 468 2 -0.35 7.401331105061474 97.61235881291326 12.597681195080247 1 -6 -5
549 183 2 -0.35 31.956124749790295 81.40622141106803 24.44892846178977 -2 1 2
193 65 1 0.7 74.69802004919048 95.22160659596531 8.327509441348527 -1 2 11
194 65 2 -0.35 73.7332370136974 95.38490925381916 7.704511900131295 -1 2 11
1037 346 2 -0.35 73.80586966979415 88.68444446928717 15.976043312437666 -8 4 1
1036 346 1 0.7 73.26318582831364 89.69559451103638 15.806721603066052 -8 4 1
1038 346 2 -0.35 72.72050198683311 90.70674455278558 15.63739989369444 -8 4 1
195 65 2 -0.35 75.66280308468353 95.05830393811145 8.95050698256576 -1 2 11
522 174 2 -0.35 86.86870797767604 101.60594143805125 25.022304878109242 0 -4 0
520 174 1 0.7 87.46925624172341 100.7473743980082 24.52450529966312 0 -4 0
521 174 2 -0.35 88.0698045057708 99.88880735796516 24.02670572121699 0 -4 0
1319 440 2 -0.35 85.08187196862272 88.54635850293471 7.69879869829726 0 4 2
1318 440 1 0.7 84.52799489840237 88.98541356038366 8.61860892199192 0 4 2
1320 440 2 -0.35 83.97411782818202 89.42446861783262 9.538419145686577 0 4 2
276 92 2 -0.35 105.4896575105824 78.07900317153525 16.918696853391015 -3 4 2
274 92 1 0.7 105.46385392933468 78.00780724238726 15.761171339689536 -3 4 2
275 92 2 -0.35 105.43805034808695 77.93661131323927 14.603645825988057 -3 4 2
191 64 2 -0.35 116.81009269190432 78.8433068915892 23.264999452137534 -3 -1 -3
192 64 2 -0.35 118.71758697644717 80.15719326982618 23.1324545935905 -3 -1 -3
190 64 1 0.7 117.76383983417574 79.50025008070769 23.198727022864016 -3 -1 -3
780 260 2 -0.35 146.2510048044312 91.78793270361777 6.942994873782716 6 -8 1
778 260 1 0.7 147.0719977961768 91.90145186920275 7.754588310517007 6 -8 1
779 260 2 -0.35 147.89299078792237 92.01497103478772 8.566181747251298 6 -8 1
1481 494 2 -0.35 137.70543735221642 91.70962343137991 8.518621105513029 -1 -4 0
1482 494 2 -0.35 139.17604092773274 89.93712838818523 8.79788163892798 -1 -4 0
1480 494 1 0.7 138.44073913997457 90.82337590978257 8.658251372220503 -1 -4 0
1044 348 2 -0.35 128.84676370724293 99.05060886140528 23.02881998646735 -3 -2 3
362 121 2 -0.35 10.322539914234245 101.87541444397861 8.136221451443873 1 -7 3
361 121 1 0.7 9.599758556289595 101.43472318777678 8.929302989064672 1 -7 3
363 121 2 -0.35 8.876977198344946 100.99403193157495 9.722384526685474 1 -7 3
509 170 2 -0.35 11.494438012992385 103.8755523567169 21.555525475868716 -3 2 -4
508 170 1 0.7 11.223086614205462 102.81554131087614 21.94068128988798 -3 2 -4
510 170 2 -0.35 10.951735215418541 101.75553026503538 22.325837103907244 -3 2 -4
353 118 2 -0.35 19.60767451898281 105.65711479860994 9.315596441771945 -1 2 2
352 118 1 0.7 19.656114219047524 105.77599039883863 8.162720825268993 -1 2 2
354 118 2 -0.35 19.704553919112236 105.89486599906732 7.009845208766041 -1 2 2
95 32 2 -0.35 1.6610519458264392 118.80971082132592 20.228858827335564 -1 3 1
94 32 1 0.7 2.680528307565504 118.87962702200731 20.777839403257406 -1 3 1
294 98 2 -0.35 23.86983911866271 103.49927380140541 15.779806348433489 -7 1 3
292 98 1 0.7 23.608672480067458 104.6176190926182 15.943194831828412 -7 1 3
293 98 2 -0.35 23.347505841472206 105.735964383831 16.106583315223336 -7 1 3
96 32 2 -0.35 3.7000046693045645 118.9495432226887 21.326819979179245 -1 3 1
3 1 2 -0.35 19.901836842657232 105.39390756869385 12.398007921717346 0 -1 6
1 1 1 0.7 20.526721308704946 104.86957856672683 13.22274939744693 0 -1 6
2 1 2 -0.35 21.15160577475266 104.34524956475981 14.047490873176516 0 -1 6
1188 396 2 -0.35 18.239627358971024 109.54777036888605 148.20338793069462 -2 3 -1
955 319 1 0.7 18.777930838356845 106.08863389712769 22.27166758619027 1 4 -7
957 319 2 -0.35 19.589942373441378 106.13397890697331 21.444515183684896 1 4 -7
956 319 2 -0.35 17.96591930327231 106.04328888728206 23.098819988695645 1 4 -7
350 117 2 -0.35 38.178035559492535 115.78171285159175 2.653190433496154 1 -1 8
349 117 1 0.7 39.05530111424405 116.52424983220098 2.810174441838228 1 -1 8
351 117 2 -0.35 39.93256666899557 117.2667868128102 2.9671584501803028 1 -1 8
322 108 1 0.7 48.92838303532435 117.49219090724131 1.9046643596170822 7 2 -4
722 241 2 -0.35 42.378009710297526 118.58908531381094 6.956494382580235 0 5 -1
721 241 1 0.7 43.21705155664645 118.91052422879163 7.690174015669393 0 5 -1
723 241 2 -0.35 44.05609340299538 119.23196314377232 8.42385364875855 0 5 -1
324 108 2 -0.35 48.49817840057214 118.40272226271533 2.480387055831383 7 2 -4
1284 428 2 -0.35 28.782330895675138 124.17989831756583 15.225179444694154 -1 -6 3
1283 428 2 -0.35 30.322084110959693 122.70263313791759 16.13580978957253 -1 -6 3
1282 428 1 0.7 29.552207503317415 123.44126572774171 15.680494617133341 -1 -6 3
323 108 2 -0.35 49.358587670076574 116.5816595517673 1.3289416634027817 7 2 -4
566 189 2 -0.35 60.28683671190989 101.87149982574947 10.863599828324302 -2 -2 -3
567 189 2 -0.35 61.77884053089776 103.4572464013363 11.664681847930657 -2 -2 -3
565 189 1 0.7 61.032838621403826 102.66437311354288 11.26414083812748 -2 -2 -3
47 16 2 -0.35 61.469380302095615 123.61921098051302 13.15026759583825 3 0 0
46 16 1 0.7 60.59107046498638 122.87146328355242 13.272926520210897 3 0 0
48 16 2 -0.35 59.71276062787715 122.12371558659183 13.395585444583544 3 0 0
1439 480 2 -0.35 62.283267616403755 109.19430544244582 24.17881675827038 0 -6 1
1143 381 2 -0.35 87.04803106941618 116.39429780928492 20.50587052810077 1 -1 -2
1141 381 1 0.7 87.636260707827 115.51380326126912 20.03225122590921 1 -1 -2
1142 381 2 -0.35 88.22449034623784 114.63330871325331 19.55863192371765 1 -1 -2
189 63 2 -0.35 108.28031980619016 106.86572493472802 18.405737862095016 -3 -2 -1
187 63 1 0.7 108.53284165017776 107.79237934080679 19.0562333117364 -3 -2 -1
188 63 2 -0.35 108.78536349416535 108.71903374688556 19.70672876137778 -3 -2 -1
788 263 2 -0.35 117.92216386940197 118.56921958489865 17.44552312659917 3 -8 -3
787 263 1 0.7 117.81286435058813 119.61579174932457 16.957322020666023 3 -8 -3
789 263 2 -0.35 117.70356483177429 120.66236391375051 16.469120914732873 3 -8 -3
977 326 2 -0.35 111.12121982135531 123.90289973052136 148.76390055392324 3 -2 1
142 48 1 0.7 114.78199740091783 121.8663401904256 2.5855059880399804 -5 -3 -1
143 48 2 -0.35 114.59091946505433 121.09906696156514 3.4342586108336404 -5 -3 -1
144 48 2 -0.35 114.97307533678132 122.63361341928608 1.7367533652463203 -5 -3 -1
1236 412 2 -0.35 109.04895633842877 114.70060652191019 0.5957623479315263 0 -6 -2
461 154 2 -0.35 127.21861010809414 114.24967153617 20.402450901473696 1 -2 -2
460 154 1 0.7 127.2296973741518 115.3781526374572 20.67079299017168 1 -2 -2
462 154 2 -0.35 127.24078464020945 116.50663373874441 20.93913507886966 1 -2 -2
14 5 2 -0.35 140.12259712704125 102.3872212513936 10.016052036653763 -6 4 4
13 5 1 0.7 140.20662652517908 103.5120338151883 10.286857790980054 -6 4 4
15 5 2 -0.35 140.2906559233169 104.636846378983 10.557663545306346 -6 4 4
207 69 2 -0.35 131.09195454551667 114.34417721420974 10.743218739183858 -6 -3 4
205 69 1 0.7 131.11647262457157 115.08262123734525 11.637477811542304 -6 -3 4
206 69 2 -0.35 131.14099070362644 115.82106526048076 12.531736883900752 -6 -3 4
1043 348 2 -0.35 128.74679131979795 100.2922081399955 24.986072334314986 -3 -2 3
1042 348 1 0.7 128.79677751352045 99.67140850070038 24.00744616039117 -3 -2 3
825 275 2 -0.35 128.56408767750835 123.13035188563077 23.553966612120032 -6 -4 1
823 275 1 0.7 127.85457335503268 122.8716365390768 24.434452725390084 -6 -4 1
1158 386 2 -0.35 12.3920611758241 128.8459346469623 16.816212717273807 2 -1 -1
1156 386 1 0.7 13.181421342700142 129.3508170823957 17.500028667173613 2 -1 -1
1157 386 2 -0.35 13.970781509576184 129.85569951782912 18.18384461707342 2 -1 -1
919 307 1 0.7 0.0987647610550866 143.71965216534232 10.466118708541584 2 -1 6
1266 422 2 -0.35 1.161208539632566 134.67979567277902 2.112347090442504 3 -6 -6
1264 422 1 0.7 2.2787918020831297 134.38177628161026 2.2006199287154473 3 -6 -6
1265 422 2 -0.35 3.396375064533694 134.0837568904415 2.288892766988391 3 -6 -6
182 61 2 -0.35 4.106942893787355 140.43259750743738 7.246270758172984 0 1 1
181 61 1 0.7 4.6938574023741175 141.22711040586384 7.854448868470805 0 1 1
183 61 2 -0.35 5.28077191096088 142.02162330429027 8.462626978768627 0 1 1
921 307 2 -0.35 1.150148362755568 143.79036145263427 10.951085427776064 2 -1 6
886 296 1 0.7 49.465594264844015 146.32769966605076 4.911556251356633 3 2 1
765 255 2 -0.35 33.720492270190064 135.04586808774064 13.558348075054099 -3 -4 4
763 255 1 0.7 33.97017603512424 136.02858410575317 12.99485251564818 -3 -4 4
764 255 2 -0.35 34.219859800058416 137.0113001237657 12.431356956242261 -3 -4 4
888 296 2 -0.35 48.33367098457607 146.36601723768965 4.660794509275012 3 2 1
887 296 2 -0.35 50.59751754511196 146.28938209441185 5.162317993438255 3 2 1
681 227 2 -0.35 53.57765166716552 135.95037913778074 10.098462503075892 -3 -2 5
679 227 1 0.7 53.58455029566356 135.4483562386499 11.144180159841268 -3 -2 5
680 227 2 -0.35 53.5914489241616 134.94633333951904 12.189897816606642 -3 -2 5
150 50 2 -0.35 67.30760118103609 128.26027528237415 1.6817208136515753 -6 2 5
148 50 1 0.7 66.93528805469421 128.53790307635617 0.6187505676142363 -6 2 5
405 135 2 -0.35 90.77430965331989 0.0923209679847048 21.151410261614327 -1 4 3
403 135 1 0.7 91.47587255845205 148.49667508450537 21.85753735473309 -1 3 3
404 135 2 -0.35 92.1774354635842 147.901029201026 22.563664447851853 -1 3 3
119 40 2 -0.35 95.95253923070577 139.1993208841951 15.195139912266031 5 1 1
118 40 1 0.7 95.49393580403283 138.21046891347345 15.591945503260579 5 1 1
120 40 2 -0.35 95.0353323773599 137.22161694275184 15.98875109425512 5 1 1
971 324 2 -0.35 118.85914154639278 126.38073242072682 23.090584052453792 2 0 3
970 324 1 0.7 119.74622428990078 125.650334469369 22.931829402692873 2 0 3
972 324 2 -0.35 120.63330703340878 124.91993651801118 22.773074752931954 2 0 3
389 130 2 -0.35 119.1104691483986 130.35011681230364 9.52802998678927 -3 -3 5
388 130 1 0.7 119.98822511383287 129.9296062001461 10.159152233431655 -3 -3 5
390 130 2 -0.35 120.86598107926714 129.50909558798858 10.790274480074046 -3 -3 5
920 307 2 -0.35 148.0473811593546 143.64894287805038 9.981151989307106 1 -1 6
1232 411 2 -0.35 146.80936697724778 134.88206772732855 23.013410412494043 -2 5 4
1233 411 2 -0.35 144.61650740224735 134.4493432259324 22.391705988978305 -2 5 4
1231 411 1 0.7 145.71293718974755 134.66570547663048 22.702558200736174 -2 5 4
380 127 2 -0.35 13.474935366453245 15.289556142447843 42.58216566172508 0 2 0
379 127 1 0.7 12.753213463780124 14.88493203196151 41.7691485497166 0 2 0
381 127 2 -0.35 12.031491561107005 14.480307921475177 40.95613143770811 0 2 0
944 315 2 -0.35 15.110545829012612 16.140036056347448 29.84052186417333 1 0 1
943 315 1 0.7 16.126303004547932 15.703957634350601 29.488850184598224 1 0 1
945 315 2 -0.35 17.142060180083252 15.267879212353755 29.13717850502312 1 0 1
988 330 1 0.7 15.427329892124693 12.028895961496257 43.05697815725368 -4 7 5
990 330 2 -0.35 14.324388492787753 12.278575335242188 42.79855896300532 -4 7 5
1491 497 2 -0.35 148.93353109403623 6.452781176581432 32.989362205689616 -3 -1 0
989 330 2 -0.35 16.53027129146163 11.779216587750327 43.31539735150204 -4 7 5
1489 497 1 0.7 0.27033002341439205 5.372781916908346 32.732909324497925 -2 -1 0
1490 497 2 -0.35 0.607128952792547 4.292782657235262 32.47645644330623 -2 -1 0
63 21 2 -0.35 148.98109290629682 19.804740702701732 49.88817363626184 1 6 2
1063 355 1 0.7 39.95788611493942 5.670811734985086 27.63322175779953 1 0 0
1065 355 2 -0.35 40.16436407605393 6.400571185842582 26.755487176357953 1 0 0
1064 355 2 -0.35 39.75140815382491 4.94105228412759 28.510956339241105 1 0 0
493 165 1 0.7 41.04557718615646 23.828458052345773 49.96686934341024 3 -1 -1
495 165 2 -0.35 41.13797666917775 22.710388971437432 49.6719390705419 3 -1 -1
171 57 2 -0.35 40.96939027170477 19.484136713067794 45.21345371058125 3 6 6
169 57 1 0.7 41.25032878366312 20.609587134971076 45.20754605975463 3 6 6
170 57 2 -0.35 41.531267295621475 21.735037556874353 45.20163840892801 3 6 6
494 165 2 -0.35 40.95317770313516 24.94652713325412 50.261799616278566 3 -1 -1
1192 398 1 0.7 25.339859178695495 1.5767187163031955 29.226520324575176 2 2 0
1242 414 2 -0.35 32.996998187843914 16.397488780854292 47.97804111046988 -3 2 -2
1240 414 1 0.7 31.969832005886357 15.905344167739841 48.197866755984286 -3 2 -2
1241 414 2 -0.35 30.9426658239288 15.413199554625388 48.41769240149869 -3 2 -2
1194 398 2 -0.35 25.16471337798149 1.9370024466263087 28.137888347203756 2 2 0
1193 398 2 -0.35 25.5150049794095 1.2164349859800823 30.315152301946597 2 2 0
27 9 2 -0.35 63.96892064056163 11.82988758495223 43.503744754006775 3 6 -4
25 9 1 0.7 64.79474491208013 12.417345465619189 44.06810945082123 3 6 -4
26 9 2 -0.35 65.62056918359863 13.004803346286147 44.63247414763569 3 6 -4
1183 395 1 0.7 67.06141222522436 2.8593027860789637 41.89157822057626 5 5 -3
1184 395 2 -0.35 66.4722444317308 3.681930005577486 41.32433420884129 5 5 -3
1185 395 2 -0.35 67.65058001871793 2.036675566580442 42.45882223231121 5 5 -3
999 333 2 -0.35 99.78021227493224 15.53363327965544 23.932978959839506 3 2 4
997 333 1 0.7 100.03829784044933 14.908988281192537 24.875746410893516 3 2 4
938 313 2 -0.35 79.96383318719593 3.977268322489466 31.73318473159595 -3 -8 -3
939 313 2 -0.35 81.93292843833098 4.442321033574707 30.59793591839654 -3 -8 -3
937 313 1 0.7 80.94838081276346 4.209794678032086 31.165560324996246 -3 -8 -3
991 331 1 0.7 83.16178125145555 4.678575951001841 35.35829217832951 1 5 -6
992 331 2 -0.35 84.28578611879453 4.948244563057764 35.26086580680849 1 5 -6
993 331 2 -0.35 82.03777638411657 4.408907338945918 35.45571854985053 1 5 -6
998 333 2 -0.35 100.29638340596644 14.284343282729633 25.818513861947523 3 2 4
543 181 2 -0.35 115.88565399117336 7.748190748706843 47.357458791268385 -10 -6 6
541 181 1 0.7 116.79116729618057 7.075215681149714 47.62718126512113 -10 -6 6
542 181 2 -0.35 117.6966806011878 6.4022406135925864 47.89690373897387 -10 -6 6
136 46 1 0.7 103.64816105229036 11.965842658071544 46.42428446448463 -17 -7 -1
137 46 2 -0.35 103.51853540905633 11.302915579749099 47.36732469768812 -17 -7 -1
138 46 2 -0.35 103.7777866955244 12.62876973639399 45.48124423128114 -17 -7 -1
615 205 2 -0.35 104.66366781890605 3.5888021509079526 41.05663211127454 -4 2 6
613 205 1 0.7 104.95555814208674 4.288788142032272 41.9343676360555 -4 2 6
614 205 2 -0.35 105.24744846526744 4.988774133156593 42.81210316083646 -4 2 6
1003 335 1 0.7 147.66957517033833 11.14169780292335 30.91726914842252 -5 2 -4
1004 335 2 -0.35 146.96377865635912 10.233304356077824 31.066509312540827 -5 2 -4
1005 335 2 -0.35 148.3753716843175 12.050091249768878 30.76802898430421 -5 2 -4
231 77 2 -0.35 129.42612876223234 18.92753165755641 41.38352496529279 3 5 3
230 77 2 -0.35 130.9246209538457 17.851304762392108 42.790172334679255 3 5 3
229 77 1 0.7 130.17537485803902 18.38941820997426 42.086848649986024 3 5 3
61 21 1 0.7 148.2822139527065 19.450886495525918 49.03262971085885 1 6 2
62 21 2 -0.35 147.58333499911618 19.097032288350107 48.17708578545585 1 6 2
228 76 2 -0.35 8.483840701496833 29.915410598306515 26.036257777942584 1 2 9
227 76 2 -0.35 10.396481168538312 31.00494563137678 26.769142390651815 1 2 9
226 76 1 0.7 9.440160935017571 30.460178114841646 26.4027000842972 1 2 9
664 222 1 0.7 23.025176122213306 45.104930233387314 31.751520360337267 2 2 -5
665 222 2 -0.35 22.191152513835853 45.24427820368183 32.54561529411186 2 2 -5
666 222 2 -0.35 23.85919973059076 44.9655822630928 30.957425426562676 2 2 -5
318 106 2 -0.35 46.676185062258426 29.83472581248473 33.96706182833775 4 2 -1
317 106 2 -0.35 47.24052063031875 28.86155313959784 31.93805706851988 4 2 -1
316 106 1 0.7 46.958352846288584 29.348139476041286 32.952559448428815 4 2 -1
1444 482 1 0.7 41.30134471111799 36.40988300887684 31.790563370354814 6 9 -1
1445 482 2 -0.35 40.40596759014378 35.99338156421199 31.181936754252973 6 9 -1
1446 482 2 -0.35 42.196721832092194 36.8263844535417 32.399189986456655 6 9 -1
1433 478 2 -0.35 25.567760691290264 48.3843095796387 46.37489542655892 0 4 4
1432 478 1 0.7 26.067861221498315 47.36491481059922 46.137548076583556 0 4 4
1434 478 2 -0.35 26.56796175170637 46.34552004155974 45.90020072660818 0 4 4
1498 500 1 0.7 54.13375592453309 44.70177756191498 43.893300586294316 5 1 11
1500 500 2 -0.35 54.88773268886374 43.90968997173437 44.28023247737019 5 1 11
1499 500 2 -0.35 53.37977916020243 45.49386515209558 43.50636869521844 5 1 11
1391 464 2 -0.35 74.17891047254925 31.596490149383335 36.67811138116283 -2 2 5
1390 464 1 0.7 74.49881441672441 31.5654084255904 37.79269443905869 -2 2 5
538 180 1 0.7 89.66789635182873 34.924599383325784 48.808471497097294 -1 4 3
540 180 2 -0.35 88.59178366986494 35.154592389632086 48.44147733806141 -1 4 3
539 180 2 -0.35 90.74400903379252 34.69460637701948 49.17546565613318 -1 4 3
1485 495 2 -0.35 86.68479831040149 43.67660399098652 36.53938816272075 -4 2 -4
1484 495 2 -0.35 88.79542894717555 44.325037806908234 35.82722813753228 -4 2 -4
1483 495 1 0.7 87.74011362878852 44.000820898947374 36.18330815012651 -4 2 -4
1392 464 2 -0.35 74.81871836089957 31.534326701797465 38.90727749695455 -2 2 5
1425 475 2 -0.35 98.88248584931654 44.74698951573876 37.91871372952444 1 -1 -3
1423 475 1 0.7 98.71190426157 44.92254971710653 36.78483519210678 1 -1 -3
1424 475 2 -0.35 98.54132267382347 45.098109918474286 35.650956654689125 1 -1 -3
820 274 1 0.7 114.97788988698564 33.76724042809301 33.53672081078404 -2 -2 0
821 274 2 -0.35 115.08224599694539 33.01700711085861 32.65816530768501 -2 -2 0
822 274 2 -0.35 114.87353377702587 34.51747374532742 34.41527631388307 -2 -2 0
1128 376 2 -0.35 144.30725010634515 36.748283950963526 26.12413879113854 -4 2 -5
1486 496 1 0.7 127.15948723274714 32.06770913856606 45.74752639779604 -3 1 -2
1487 496 2 -0.35 126.00515117674145 32.17663311469004 45.712258321143636 -3 1 -2
1488 496 2 -0.35 128.31382328875284 31.958785162442073 45.78279447444844 -3 1 -2
632 211 2 -0.35 13.718770447827346 51.81282644431392 47.23756114746411 6 0 -1
631 211 1 0.7 14.570961341980984 52.361369771068915 46.6732288884228 6 0 -1
633 211 2 -0.35 15.423152236134623 52.90991309782391 46.10889662938148 6 0 -1
455 152 2 -0.35 34.45369796702474 56.31242946559819 45.54753287388344 1 4 1
456 152 2 -0.35 36.698036880661384 56.102344850504565 46.09635642953678 1 4 1
454 152 1 0.7 35.57586742384306 56.207387158051375 45.82194465171011 1 4 1
861 287 2 -0.35 36.60261890872243 73.55458093818604 45.68226614238127 -1 0 5
859 287 1 0.7 35.84970297596595 74.3604884740656 46.04175277886893 -1 0 5
860 287 2 -0.35 35.09678704320947 75.16639600994517 46.40123941535659 -1 0 5
638 213 2 -0.35 46.70120438193143 65.52398960808874 28.894846783503198 -1 4 3
637 213 1 0.7 46.91451942264779 66.66395668681396 28.918758137077138 -1 4 3
639 213 2 -0.35 47.127834463364145 67.80392376553918 28.942669490651074 -1 4 3