LAMMPS (29 Aug 2024 - Update 1)
  using 1 OpenMP thread(s) per MPI task
package gpu 1 gpuID 0
# GCMC for CO2 molecular fluid, rigid/small/nvt dynamics
# Rigid CO2 TraPPE model
# [Potoff and J.I. Siepmann, Vapor-liquid equilibria of
# mixtures containing alkanes, carbon dioxide and
# nitrogen AIChE J., 47,1676-1682 (2001)].

# global model settings

units           real
atom_style      full
boundary        p p p
pair_style      lj/cut/coul/long  12
pair_modify     mix arithmetic shift yes
kspace_style    pppm 1.0e-4
bond_style      harmonic
angle_style     harmonic
neigh_modify    one 4000

# box, start molecules on simple cubic lattice
region          mbox block 0 ${lbox} 0 ${lbox} 0 ${lbox} units box
region          mbox block 0 149 0 ${lbox} 0 ${lbox} units box
region          mbox block 0 149 0 149 0 ${lbox} units box
region          mbox block 0 149 0 149 0 149 units box
create_box      2 mbox                                       bond/types 1                                angle/types 1                               extra/bond/per/atom 2                       extra/angle/per/atom 1                      extra/special/per/atom 2
Created orthogonal box = (0 0 0) to (149 149 149)
  1 by 1 by 1 MPI processor grid
molecule        co2mol ../CO2.txt
Read molecule template co2mol:
# CO2 molecule file. TraPPE model.
  1 molecules
  0 fragments
  3 atoms with max type 2
  2 bonds with max type 1
  1 angles with max type 1
  0 dihedrals with max type 0
  0 impropers with max type 0
create_atoms   	0 random ${nmols} 34578 mbox mol co2mol 464563 overlap 1.2
create_atoms   	0 random 500 34578 mbox mol co2mol 464563 overlap 1.2
Created 1500 atoms
  using lattice units in orthogonal box = (0 0 0) to (149 149 149)
  create_atoms CPU = 0.007 seconds

# rigid CO2 TraPPE model

pair_coeff      1   1  0.053649   2.800
pair_coeff      2   2  0.156973   3.050
bond_coeff      1       0       1.16
angle_coeff     1       0       180

# masses

mass 1 12.0107
mass 2 15.9994

write_data init_conf.data  pair ij
System init for write_data ...
PPPM initialization ...
  using 12-bit tables for long-range coulomb (src/kspace.cpp:342)
  G vector (1/distance) = 0.16146867
  grid = 30 30 30
  stencil order = 5
  estimated absolute RMS force accuracy = 0.033120649
  estimated relative force accuracy = 9.9741851e-05
  using double precision FFTW3
  3d grid and FFT values/proc = 42875 27000
Generated 1 of 1 mixed pair_coeff terms from arithmetic mixing rule

# MD settings

group           co2 type 1 2
1500 atoms in group co2
velocity       	all create 300 54654
timestep        0.25

# rigid constraints with thermostat
fix             myrigidnvt co2 rigid/nvt molecule temp 300 300 $(100*dt)
fix             myrigidnvt co2 rigid/nvt molecule temp 300 300 25
  500 rigid bodies with 1500 atoms

thermo 1000
thermo_style custom step temp density press ke pe etotal


variable    mvol equal vol
variable    mden equal density
variable	mtmp equal temp
variable    mpre equal press

fix mydat all ave/time 1 4000 4000 v_mtmp v_mden v_mpre file statistics.dat ## every 1ps

run 4000000 ## 1ns

CITE-CITE-CITE-CITE-CITE-CITE-CITE-CITE-CITE-CITE-CITE-CITE-CITE

Your simulation uses code contributions which should be cited:

- GPU package (short-range, long-range and three-body potentials): doi:10.1016/j.cpc.2010.12.021, doi:10.1016/j.cpc.2011.10.012, doi:10.1016/j.cpc.2013.08.002, doi:10.1016/j.commatsci.2014.10.068, doi:10.1016/j.cpc.2016.10.020, doi:10.3233/APC200086

@Article{Brown11,
 author = {W. M. Brown and P. Wang and S. J. Plimpton and A. N. Tharrington},
 title = {Implementing Molecular Dynamics on Hybrid High Performance Computers---Short Range Forces},
 journal = {Comput.\ Phys.\ Commun.},
 year =    2011,
 volume =  182,
 pages =   {898--911},
 doi =     {10.1016/j.cpc.2010.12.021}
}

@Article{Brown12,
 author = {W. M. Brown and A. Kohlmeyer and S. J. Plimpton and A. N. Tharrington},
 title = {Implementing Molecular Dynamics on Hybrid High Performance Computers - Particle-Particle Particle-Mesh},
 journal = {Comput.\ Phys.\ Commun.},
 year =    2012,
 volume =  183,
 doi =     {10.1016/j.cpc.2011.10.012},
 pages =   {449--459}
}

@Article{Brown13,
 author = {W. M. Brown and Y. Masako},
 title = {Implementing Molecular Dynamics on Hybrid High Performance Computers---Three-Body Potentials},
 journal = {Comput.\ Phys.\ Commun.},
 year =    2013,
 volume =  184,
 pages =   {2785--2793},
 doi =     {10.1016/j.cpc.2013.08.002},
}

@Article{Trung15,
 author = {T. D. Nguyen and S. J. Plimpton},
 title = {Accelerating Dissipative Particle Dynamics Simulations for Soft Matter Systems},
 journal = {Comput.\ Mater.\ Sci.},
 year =    2015,
 doi =     {10.1016/j.commatsci.2014.10.068},
 volume =  100,
 pages =   {173--180}
}

@Article{Trung17,
 author = {T. D. Nguyen},
 title = {{GPU}-Accelerated {T}ersoff Potentials for Massively Parallel
    Molecular Dynamics Simulations},
 journal = {Comput.\ Phys.\ Commun.},
 year =    2017,
 doi =     {10.1016/j.cpc.2016.10.020},
 volume =  212,
 pages =   {113--122}
}

@inproceedings{Nikolskiy19,
 author = {V. Nikolskiy and V. Stegailov},
 title = {{GPU} Acceleration of Four-Site Water Models in {LAMMPS}},
 booktitle = {Proceedings of the International Conference on Parallel
    Computing (ParCo 2019), Prague, Czech Republic},
 doi =     {10.3233/APC200086},
 year =    2019
}

CITE-CITE-CITE-CITE-CITE-CITE-CITE-CITE-CITE-CITE-CITE-CITE-CITE

PPPM initialization ...
  using 12-bit tables for long-range coulomb (src/kspace.cpp:342)
  G vector (1/distance) = 0.16146867
  grid = 30 30 30
  stencil order = 5
  estimated absolute RMS force accuracy = 0.033120649
  estimated relative force accuracy = 9.9741851e-05
  using double precision FFTW3
  3d grid and FFT values/proc = 42875 27000
Generated 1 of 1 mixed pair_coeff terms from arithmetic mixing rule
Per MPI rank memory allocation (min/avg/max) = 11.38 | 11.38 | 11.38 Mbytes
   Step          Temp         Density         Press          KinEng         PotEng         TotEng    
         0   307.41471      0.011046042   -128.70081      762.70438      1933.3482      2696.0526    
      1000   309.3814       0.011046042   -4.8658588      767.58377     -13.218883      754.36489    
      2000   308.60489      0.011046042    6.3343383      765.65723     -14.850199      750.80703    
      3000   302.87577      0.011046042    5.6798485      751.44313     -17.792851      733.65028    
      4000   287.26061      0.011046042    1.5234134      712.70149     -19.18857       693.51292    
      5000   295.9092       0.011046042    15.268686      734.15888      13.243528      747.40241    
      6000   310.53067      0.011046042    5.6301687      770.43516     -23.546405      746.88875    
      7000   294.92838      0.011046042    10.812017      731.72545     -25.670474      706.05497    
      8000   296.22559      0.011046042    9.6895285      734.94384     -26.129156      708.81469    
      9000   304.75603      0.011046042    4.9463413      756.10812     -24.069691      732.03843    
     10000   296.59697      0.011046042    5.6466173      735.86527     -20.81158       715.05369    
     11000   290.9342       0.011046042    6.4135414      721.81576     -23.470122      698.34564    
     12000   299.29378      0.011046042    6.0878253      742.55611     -26.472678      716.08343    
     13000   301.77165      0.011046042    3.7371671      748.70379     -29.55385       719.14994    
     14000   294.50807      0.011046042    5.8299761      730.68265     -25.704731      704.97792    
     15000   288.36786      0.011046042    6.5465046      715.4486      -27.311347      688.13725    
     16000   300.60494      0.011046042    6.0269281      745.80915     -26.682636      719.12652    
     17000   280.83211      0.011046042    3.242138       696.75222     -26.459133      670.29308    
     18000   293.34388      0.011046042    10.143908      727.79426     -35.271191      692.52307    
     19000   314.37374      0.011046042    6.5244069      779.96991     -32.108628      747.86128    
     20000   307.69999      0.011046042    5.8692882      763.41217     -34.500006      728.91216    
     21000   297.02962      0.011046042    2.5644265      736.93866     -36.60402       700.33464    
     22000   293.3246       0.011046042    6.2421465      727.74641     -38.616187      689.13022    
     23000   301.76714      0.011046042    9.8894856      748.69259     -39.43472       709.25787    
     24000   302.47751      0.011046042    5.7802198      750.45505     -38.313573      712.14148    
     25000   316.21272      0.011046042    5.697594       784.53248     -40.346518      744.18596    
     26000   297.90553      0.011046042    4.982021       739.11184     -40.54589       698.56595    
     27000   295.87546      0.011046042    3.2878885      734.07517     -36.863215      697.21195    
     28000   310.92537      0.011046042    11.380367      771.41442     -41.152471      730.26195    
     29000   296.00795      0.011046042    6.2500256      734.40388     -37.697645      696.70623    
     30000   304.3509       0.011046042    0.42543429     755.10297     -37.306498      717.79647    
     31000   300.00556      0.011046042    6.3600174      744.32206     -35.99641       708.32564    
     32000   302.72585      0.011046042    6.5880699      751.07119     -37.445715      713.62548    
     33000   297.09938      0.011046042    5.9193713      737.11176     -38.921972      698.18979    
     34000   292.2896       0.011046042    5.8193952      725.17855     -37.704022      687.47452    
     35000   319.91233      0.011046042    4.9340366      793.71132     -42.386835      751.32448    
     36000   322.54223      0.011046042    6.7967771      800.23617     -41.018706      759.21746    
     37000   292.53467      0.011046042    6.282949       725.78659     -41.697832      684.08875    
     38000   293.01261      0.011046042    5.3336306      726.97236     -43.176686      683.79567    
     39000   308.38926      0.011046042    5.5736739      765.12226     -47.727747      717.39451    
     40000   312.60142      0.011046042    6.1868535      775.57273     -50.422678      725.15005    
     41000   295.93646      0.011046042    4.9252932      734.22652     -46.50552       687.721      
     42000   307.0286       0.011046042    8.8960903      761.74643     -45.529141      716.21729    
     43000   306.13075      0.011046042    7.2492234      759.51883     -47.241407      712.27742    
     44000   300.15092      0.011046042    1.1038785      744.68272     -49.845493      694.83722    
     45000   283.83095      0.011046042    5.4206484      704.19241     -49.62434       654.56807    
     46000   307.7754       0.011046042    4.2048817      763.59925     -48.666194      714.93306    
     47000   295.93187      0.011046042    7.0029129      734.21512     -45.854144      688.36097    
     48000   302.94321      0.011046042    3.1320539      751.61046     -47.190643      704.41982    
     49000   299.2875       0.011046042   -0.097598435    742.54053     -47.610643      694.92989    
     50000   298.14334      0.011046042    6.6872989      739.70185     -47.996545      691.7053     
     51000   300.06764      0.011046042    5.8787917      744.47609     -42.870045      701.60605    
     52000   296.32224      0.011046042    1.8053368      735.18364     -46.361889      688.82175    
     53000   306.32677      0.011046042    9.2689461      760.00515     -44.381945      715.62321    
     54000   307.92464      0.011046042    6.3990218      763.96953     -47.988061      715.98147    
     55000   301.95324      0.011046042    5.4026094      749.15432     -48.503666      700.65066    
     56000   309.86696      0.011046042    6.3885827      768.78846     -44.948272      723.84019    
     57000   285.65649      0.011046042    5.5260982      708.72164     -41.852761      666.86888    
     58000   294.33732      0.011046042    5.9368082      730.259       -40.150527      690.10848    
     59000   302.39616      0.011046042    6.9801035      750.2532      -38.633366      711.61983    
     60000   298.52628      0.011046042    3.0551504      740.65194     -45.874029      694.77791    
     61000   309.05847      0.011046042    6.391644       766.78258     -43.588432      723.19415    
     62000   277.80725      0.011046042    3.4236625      689.24745     -42.810408      646.43704    
     63000   293.33372      0.011046042   -8.0689408      727.76904     -45.149229      682.61981    
     64000   315.65276      0.011046042    7.6839362      783.14319     -44.651643      738.49154    
     65000   308.05286      0.011046042    14.154027      764.28764     -42.343144      721.9445     
     66000   294.01751      0.011046042    10.041469      729.46555     -41.901317      687.56424    
     67000   280.02224      0.011046042    4.9950497      694.74291     -41.594236      653.14867    
     68000   303.25681      0.011046042    7.3277745      752.3885      -40.108451      712.28005    
     69000   306.26024      0.011046042    7.6655914      759.84009     -39.548127      720.29196    
     70000   295.10718      0.011046042    6.9703859      732.16906     -38.161623      694.00744    
     71000   298.6477       0.011046042    4.4242416      740.95318     -39.574541      701.37863    
     72000   312.00125      0.011046042    2.5884604      774.08369     -41.560497      732.5232     
     73000   306.35201      0.011046042    7.0639623      760.06778     -40.848986      719.2188     
     74000   301.31062      0.011046042    5.6087095      747.55996     -42.195559      705.3644     
     75000   294.64518      0.011046042    5.5317418      731.02282     -44.430834      686.59198    
     76000   308.39711      0.011046042    3.4532882      765.14174     -45.797264      719.34447    
     77000   315.26079      0.011046042    7.9997933      782.1707      -44.813862      737.35684    
     78000   302.70335      0.011046042    7.6415056      751.01536     -39.586367      711.429      
     79000   298.14859      0.011046042    2.3895325      739.71488     -37.308325      702.40655    
     80000   298.39021      0.011046042    4.6503999      740.31435     -37.7211        702.59325    
     81000   301.95279      0.011046042    11.705452      749.15321     -36.82966       712.32355    
     82000   302.18814      0.011046042    13.620531      749.73709     -39.141845      710.59525    
     83000   299.5115       0.011046042    9.7029873      743.09629     -33.980175      709.11611    
     84000   301.86053      0.011046042   -9.2522582      748.9243      -35.991155      712.93315    
     85000   308.90126      0.011046042    24.410109      766.39255     -40.194997      726.19755    
     86000   293.24508      0.011046042    13.041577      727.54914     -40.215659      687.33348    
     87000   297.07997      0.011046042    2.7417753      737.06359     -38.117389      698.9462     
     88000   296.47119      0.011046042    1.4532077      735.55319     -40.057449      695.49575    
     89000   308.747        0.011046042    7.6733216      766.00982     -43.033219      722.9766     
     90000   296.56597      0.011046042    6.0334126      735.78835     -47.245178      688.54317    
     91000   302.75503      0.011046042    4.6395938      751.14357     -43.738047      707.40552    
     92000   299.70217      0.011046042    6.6286631      743.56935     -44.211516      699.35784    
     93000   293.81899      0.011046042    5.0051226      728.97302     -45.645642      683.32738    
     94000   311.3035       0.011046042    5.4772935      772.35256     -45.100535      727.25202    
     95000   306.03819      0.011046042    4.9917552      759.28919     -43.440969      715.84822    
     96000   285.79122      0.011046042    4.877733       709.0559      -43.608348      665.44755    
     97000   305.93002      0.011046042    4.7431485      759.02082     -42.19866       716.82216    
     98000   308.99823      0.011046042    5.7721692      766.63313     -44.927861      721.70527    
     99000   304.4514       0.011046042    5.5431972      755.35231     -46.938318      708.41399    
    100000   290.50918      0.011046042    6.1223489      720.76128     -43.057704      677.70358    
    101000   298.12785      0.011046042    5.7762266      739.66343     -39.390499      700.27293    
    102000   293.93132      0.011046042    5.3172342      729.25171     -38.378978      690.87273    
    103000   293.37654      0.011046042    6.1091898      727.87528     -41.194429      686.68085    
    104000   310.98925      0.011046042    6.4569209      771.57291     -44.975342      726.59756    
    105000   314.85737      0.011046042    5.7140043      781.16982     -44.70054       736.46928    
    106000   281.53105      0.011046042    5.745198       698.4863      -44.740043      653.74626    
    107000   296.00025      0.011046042    11.75978       734.38479     -41.510719      692.87407    
    108000   311.67691      0.011046042    9.3086949      773.27901     -44.62568       728.65333    
    109000   310.09802      0.011046042    3.814111       769.36173     -41.059877      728.30185    
    110000   279.74206      0.011046042    3.60086        694.04776     -44.050359      649.9974     
    111000   299.58657      0.011046042    8.9486545      743.28253     -31.975893      711.30664    
    112000   309.13145      0.011046042    7.1299519      766.96366     -40.195594      726.76806    
    113000   296.05388      0.011046042   -2.5550203      734.51784     -36.395943      698.12189    
    114000   291.66552      0.011046042    7.464004       723.63019     -38.3273        685.30289    
    115000   313.14433      0.011046042    6.2782544      776.91971     -37.088372      739.83133    
    116000   312.60867      0.011046042    6.1038395      775.59072     -41.224509      734.36621    
    117000   300.76329      0.011046042    6.4551945      746.20202     -44.194953      702.00707    
    118000   292.98485      0.011046042    5.4710991      726.90348     -42.76093       684.14255    
    119000   307.24779      0.011046042    5.0743671      762.29023     -41.104161      721.18607    
    120000   305.76194      0.011046042    5.7389652      758.6038      -40.126229      718.47757    
    121000   305.18635      0.011046042    6.0571589      757.17575     -37.65171       719.52404    
    122000   295.92973      0.011046042    7.5286938      734.20982     -38.57075       695.63907    
    123000   306.55937      0.011046042    5.7595677      760.58226     -37.27535       723.30691    
    124000   308.93158      0.011046042   -0.070297716    766.46776     -40.899662      725.5681     
    125000   310.05936      0.011046042    11.504183      769.26582     -42.2316        727.03422    
    126000   293.73492      0.011046042    11.88648       728.76444     -46.774373      681.99007    
    127000   294.12402      0.011046042    8.4843444      729.72981     -42.48618       687.24363    
    128000   297.50329      0.011046042    3.6881547      738.11387     -41.29633       696.81754    
    129000   301.30139      0.011046042   -3.2671074      747.53705     -43.99912       703.53793    
    130000   300.59367      0.011046042    15.721471      745.78118     -42.233691      703.54749    
    131000   295.10547      0.011046042    12.109976      732.16481     -43.472288      688.69252    
    132000   306.46363      0.011046042   -5.4274428      760.34472     -39.733705      720.61101    
    133000   307.66852      0.011046042    8.1707424      763.33408     -41.673448      721.66063    
    134000   302.2668       0.011046042    10.831334      749.93227     -39.994129      709.93814    
    135000   298.49398      0.011046042    19.460344      740.5718      -42.896653      697.67515    
    136000   306.66376      0.011046042    0.30458048     760.84125     -42.773236      718.06801    
    137000   321.15347      0.011046042    0.95507214     796.79061     -39.089106      757.7015     
    138000   292.47194      0.011046042    9.3083614      725.63095     -41.164882      684.46607    
    139000   289.85854      0.011046042    6.1139707      719.14703     -35.003531      684.1435     
    140000   309.15196      0.011046042   -1.0625038      767.01454     -41.978434      725.0361     
    141000   301.77091      0.011046042    12.099928      748.70195     -39.060552      709.6414     
    142000   297.59082      0.011046042    7.2652134      738.33102     -40.467348      697.86367    
    143000   293.52505      0.011046042    1.1107703      728.24374     -42.354618      685.88912    
    144000   306.44039      0.011046042    3.3650033      760.28704     -41.667572      718.61947    
    145000   301.00041      0.011046042    9.0912219      746.79032     -38.439936      708.35038    
    146000   300.35802      0.011046042    5.5602127      745.19652     -40.936169      704.26035    
    147000   306.82921      0.011046042    4.8724026      761.25172     -42.67108       718.58064    
    148000   311.60228      0.011046042    7.0715996      773.09385     -40.458102      732.63575    
    149000   293.15537      0.011046042    5.7983487      727.32657     -37.113107      690.21346    
    150000   295.88327      0.011046042    6.6953764      734.09455     -33.413046      700.68151    
    151000   313.17334      0.011046042    7.7354513      776.9917      -38.08808       738.90362    
    152000   300.52276      0.011046042    8.579379       745.60524     -36.506544      709.0987     
    153000   301.05034      0.011046042    6.33946        746.91418     -35.633747      711.28044    
    154000   310.4063       0.011046042    6.1503937      770.12658     -35.592595      734.53398    
    155000   309.07964      0.011046042    9.0129069      766.8351      -38.162841      728.67226    
    156000   290.24951      0.011046042    6.625529       720.11705     -41.078104      679.03894    
    157000   288.03656      0.011046042    5.2145044      714.62664     -40.291968      674.33468    
    158000   307.07747      0.011046042    6.9025513      761.86767     -43.718584      718.14909    
    159000   314.33264      0.011046042    5.5002452      779.86795     -42.810848      737.0571     
    160000   291.52937      0.011046042    6.0965325      723.29241     -44.115564      679.17684    
    161000   302.95187      0.011046042    6.3730006      751.63195     -43.569749      708.0622     
    162000   301.233        0.011046042    3.972996       747.36737     -43.675472      703.6919     
    163000   303.75121      0.011046042    1.0481434      753.61511     -38.618564      714.99655    
    164000   299.94343      0.011046042    10.897508      744.16793     -37.513142      706.65479    
    165000   299.69378      0.011046042    6.2121018      743.54852     -44.039617      699.5089     
    166000   297.23887      0.011046042   -0.34076456     737.45783     -40.389132      697.06869    
    167000   292.33573      0.011046042    1.1503862      725.293       -39.013581      686.27942    
    168000   298.19581      0.011046042    5.9101899      739.83203     -39.421215      700.41082    
    169000   307.43323      0.011046042    6.593695       762.75031     -36.307328      726.44298    
    170000   304.34327      0.011046042    6.3527782      755.08404     -34.662028      720.42201    
    171000   289.5886       0.011046042    3.9308038      718.4773      -35.669739      682.80756    
    172000   298.78217      0.011046042    7.6161937      741.2868      -41.457466      699.82933    
    173000   318.70229      0.011046042    8.38344        790.70916     -41.36544       749.34372    
    174000   309.22174      0.011046042    7.790133       767.18765     -38.027668      729.15998    
    175000   295.48152      0.011046042    7.6552965      733.09781     -41.124413      691.97339    
    176000   280.63048      0.011046042    5.4893876      696.25196     -42.314165      653.9378     
    177000   285.21856      0.011046042    2.1542584      707.63511     -41.496994      666.13812    
    178000   312.57662      0.011046042    4.1140032      775.5112      -43.841876      731.66932    
    179000   315.69516      0.011046042    6.8052663      783.2484      -43.888495      739.35991    
    180000   283.91061      0.011046042    5.2121836      704.39005     -45.253741      659.13631    
    181000   301.27403      0.011046042    6.9804163      747.46917     -41.779953      705.68922    
    182000   288.49         0.011046042    5.7402887      715.75165     -39.200754      676.5509     
    183000   307.16347      0.011046042    4.9470857      762.08104     -39.17456       722.90648    
    184000   293.13589      0.011046042    5.0020365      727.27821     -44.394533      682.88368    
    185000   292.53808      0.011046042    5.3709508      725.79503     -37.360681      688.43435    
    186000   298.5168       0.011046042    5.398812       740.6284      -39.612536      701.01587    
    187000   301.5564       0.011046042    7.379763       748.16974     -39.537629      708.63211    
    188000   296.13689      0.011046042    5.7760792      734.72379     -44.304268      690.41952    
    189000   291.00608      0.011046042    2.381739       721.9941      -47.805184      674.18892    
    190000   308.44885      0.011046042    4.6926826      765.27011     -46.858106      718.412      
    191000   309.7817       0.011046042    6.937374       768.57694     -44.00958       724.56736    
    192000   286.30454      0.011046042    5.8261422      710.32946     -49.108375      661.22108    
    193000   293.36652      0.011046042    4.0679984      727.85041     -45.129158      682.72126    
    194000   316.12405      0.011046042    8.2113357      784.31247     -48.049174      736.2633     
    195000   293.58594      0.011046042    5.7922147      728.3948      -45.573373      682.82143    
    196000   290.81462      0.011046042    7.0604795      721.51908     -44.88455       676.63453    
    197000   308.45346      0.011046042    3.2142973      765.28155     -43.154544      722.127      
    198000   303.28843      0.011046042    5.47791        752.46696     -42.210358      710.2566     
    199000   290.55654      0.011046042    5.4135644      720.87878     -45.451337      675.42744    
    200000   314.32511      0.011046042    6.3035718      779.84927     -47.204538      732.64473    
    201000   312.43002      0.011046042    6.3109143      775.1475      -43.895857      731.25164    
    202000   298.74451      0.011046042    5.8758421      741.19335     -40.815129      700.37822    
    203000   290.10117      0.011046042    5.8351681      719.74901     -45.66883       674.08018    
    204000   306.16476      0.011046042    5.6738598      759.60321     -43.340195      716.26301    
    205000   303.59201      0.011046042    8.5430045      753.22014     -43.559323      709.66082    
    206000   301.9574       0.011046042    8.2234862      749.16464     -43.99488       705.16976    
    207000   294.00038      0.011046042    3.6801176      729.42304     -44.473311      684.94973    
    208000   312.06724      0.011046042    9.1938813      774.24743     -45.08452       729.16291    
    209000   300.45738      0.011046042    7.6942245      745.44305     -50.067658      695.37539    
    210000   301.98073      0.011046042    5.9846227      749.22252     -46.307144      702.91537    
    211000   296.82346      0.011046042    3.6378829      736.42719     -44.9874        691.43979    
    212000   304.27824      0.011046042    6.6160384      754.92271     -41.289554      713.63316    
    213000   296.2947       0.011046042    9.2535308      735.11533     -41.53226       693.58307    
    214000   287.40318      0.011046042    3.9599694      713.05522     -43.960363      669.09485    
    215000   304.89764      0.011046042    2.0917384      756.45945     -41.648689      714.81077    
    216000   312.24969      0.011046042    3.7129835      774.70008     -48.478715      726.22136    
    217000   291.99546      0.011046042    8.291524       724.44879     -46.153595      678.29519    
    218000   302.45407      0.011046042    1.3073554      750.39688     -45.136894      705.25998    
    219000   307.4434       0.011046042    3.8562058      762.77556     -44.970309      717.80525    
    220000   297.57297      0.011046042    11.221046      738.28675     -42.722155      695.56459    
    221000   300.24874      0.011046042    8.1814452      744.92539     -41.28094       703.64445    
    222000   299.45376      0.011046042    5.3166154      742.95303     -42.948599      700.00443    
    223000   295.41899      0.011046042    4.1953369      732.94265     -44.866095      688.07655    
    224000   307.98007      0.011046042    5.5332561      764.10705     -43.434165      720.67288    
    225000   298.51069      0.011046042    6.2332376      740.61324     -44.171421      696.44182    
    226000   287.12464      0.011046042    5.20019        712.36414     -43.681914      668.68223    
    227000   301.00087      0.011046042    6.0145846      746.79146     -45.050235      701.74122    
    228000   303.21842      0.011046042    7.4367993      752.29325     -45.767831      706.52542    
    229000   299.91728      0.011046042    5.1232867      744.10304     -43.785568      700.31748    
    230000   299.18336      0.011046042    4.0573582      742.28216     -46.938129      695.34403    
    231000   304.15281      0.011046042    10.221596      754.61152     -43.521353      711.09016    
    232000   303.80462      0.011046042    5.1417698      753.74763     -42.296065      711.45157    
    233000   296.82157      0.011046042    2.5649363      736.42251     -45.990795      690.43171    
    234000   294.79216      0.011046042    5.0761619      731.38748     -46.360021      685.02746    
    235000   319.86775      0.011046042    8.1372388      793.6007      -42.070043      751.53065    
    236000   297.77789      0.011046042    5.8801518      738.79515     -42.826683      695.96847    
    237000   304.06608      0.011046042    5.9321466      754.39633     -45.534391      708.86193    
    238000   302.16514      0.011046042    5.3497515      749.68005     -42.135061      707.54498    
    239000   289.42996      0.011046042    5.7900902      718.08372     -41.059461      677.02425    
    240000   297.35053      0.011046042    7.8867426      737.73486     -43.011807      694.72305    
    241000   295.12747      0.011046042    7.4195909      732.2194      -36.046129      696.17327    
    242000   309.6013       0.011046042    6.0328527      768.12937     -37.856499      730.27287    
    243000   303.54911      0.011046042    3.1053736      753.1137      -42.461299      710.65241    
    244000   282.32127      0.011046042    5.0505389      700.44686     -43.543999      656.90286    
    245000   303.27564      0.011046042    13.647628      752.43521     -42.011999      710.42321    
    246000   309.75527      0.011046042    4.3474105      768.51137     -44.449012      724.06236    
    247000   293.33095      0.011046042    4.5294175      727.76217     -44.655773      683.1064     
    248000   293.93893      0.011046042    5.8141774      729.27058     -43.071664      686.19892    
    249000   324.11468      0.011046042    9.462086       804.13746     -43.742218      760.39525    
    250000   307.92046      0.011046042    3.1699115      763.95916     -44.374865      719.58429    
    251000   283.96418      0.011046042    7.2973425      704.52296     -38.486675      666.03629    
    252000   303.66514      0.011046042    6.4497836      753.40157     -42.44117       710.9604     
    253000   304.77996      0.011046042    4.6276114      756.16748     -44.548989      711.61849    
    254000   297.49421      0.011046042    4.8031805      738.09135     -43.620418      694.47093    
    255000   292.36255      0.011046042    11.586863      725.35954     -38.332931      687.02661    
    256000   301.20724      0.011046042    4.4258005      747.30346     -39.682158      707.62131    
    257000   291.74229      0.011046042   -1.8996537      723.82066     -41.226288      682.59437    
    258000   304.28233      0.011046042    7.9266382      754.93286     -41.672595      713.26026    
    259000   313.63323      0.011046042    4.7813309      778.1327      -41.906793      736.22591    
    260000   286.78303      0.011046042   -0.86540491     711.5166      -45.324345      666.19225    
    261000   290.07083      0.011046042    2.3110132      719.67372     -47.657038      672.01669    
    262000   300.84926      0.011046042    13.788441      746.4153      -45.318897      701.09641    
    263000   317.40409      0.011046042    6.8879926      787.48829     -43.068657      744.41963    
    264000   295.65647      0.011046042    2.3849401      733.53184     -41.035736      692.49611    
    265000   289.3469       0.011046042    6.9942981      717.87763     -39.184599      678.69303    
    266000   308.35419      0.011046042    9.9980986      765.03526     -42.404763      722.63049    
    267000   304.72232      0.011046042    4.1655924      756.02448     -40.941048      715.08343    
    268000   300.1394       0.011046042    5.2087005      744.65412     -38.889815      705.7643     
    269000   302.70582      0.011046042    4.1191043      751.02148     -38.650489      712.37099    
    270000   292.82184      0.011046042    5.8020078      726.49905     -41.912102      684.58695    
    271000   300.69078      0.011046042    7.2231579      746.02211     -35.641567      710.38054    
    272000   306.47529      0.011046042    1.8400001      760.37365     -40.730198      719.64345    
    273000   289.26493      0.011046042    4.9300499      717.67428     -40.179011      677.49527    
    274000   295.48117      0.011046042    5.3494119      733.09693     -35.658258      697.43867    
    275000   296.34134      0.011046042    5.7295702      735.23102     -34.741851      700.48917    
    276000   308.98951      0.011046042    8.9391907      766.6115      -39.327904      727.2836     
    277000   283.43049      0.011046042    6.1149682      703.19885     -40.691758      662.50709    
    278000   300.27331      0.011046042    4.1764093      744.98636     -41.45957       703.52679    
    279000   314.58837      0.011046042    9.8438796      780.50241     -42.110086      738.39233    
    280000   297.19957      0.011046042    7.8831103      737.36032     -39.208449      698.15187    
    281000   287.61215      0.011046042   -0.35540709     713.57368     -33.692412      679.88126    
    282000   316.9569       0.011046042    5.2282389      786.3788      -38.365424      748.01338    
    283000   301.85897      0.011046042    7.2178769      748.92044     -36.74131       712.17913    
    284000   294.79338      0.011046042    1.9241377      731.39049     -40.86754       690.52295    
    285000   303.06602      0.011046042    6.7858908      751.91515     -37.737382      714.17777    
    286000   300.35245      0.011046042    7.8117832      745.18272     -35.002029      710.18069    
    287000   286.02843      0.011046042    4.5495368      709.64441     -34.373513      675.2709     
    288000   299.16357      0.011046042    3.867244       742.23306     -34.311466      707.92159    
    289000   317.93251      0.011046042    10.336605      788.79931     -31.436258      757.36306    
    290000   301.71201      0.011046042    6.6560123      748.55581     -33.979194      714.57661    
    291000   290.01784      0.011046042    2.6144839      719.54225     -37.033297      682.50895    
    292000   316.19648      0.011046042    2.0493843      784.49219     -38.181877      746.31031    
    293000   308.46881      0.011046042    6.5963143      765.31962     -41.902641      723.41698    
    294000   302.18841      0.011046042    5.3904047      749.73777     -40.354981      709.38279    
    295000   301.41261      0.011046042    4.8771817      747.81299     -36.506309      711.30668    
    296000   300.97387      0.011046042    5.8339987      746.72446     -34.902042      711.82241    
    297000   287.15253      0.011046042    5.145868       712.43334     -38.089342      674.34399    
    298000   304.31214      0.011046042    6.1460543      755.0068      -38.911681      716.09512    
    299000   304.55776      0.011046042    6.0059227      755.61619     -32.169584      723.44661    
    300000   281.05892      0.011046042    5.4273036      697.31492     -35.809519      661.5054     
    301000   300.69296      0.011046042    5.1070655      746.02753     -35.834105      710.19342    
    302000   315.24308      0.011046042    5.872683       782.12678     -34.323191      747.80359    
    303000   294.25455      0.011046042    7.767345       730.05365     -30.630127      699.42352    
    304000   292.84916      0.011046042    3.0036541      726.56685     -36.752333      689.81451    
    305000   305.5084       0.011046042    5.7301303      757.97477     -37.03484       720.93993    
    306000   299.47087      0.011046042    8.3901794      742.99548     -38.71752       704.27796    
    307000   295.04239      0.011046042    4.1670581      732.00831     -35.817327      696.19098    
    308000   309.00589      0.011046042    7.6013799      766.65214     -41.430541      725.22159    
    309000   306.05266      0.011046042    5.7547509      759.32509     -42.696722      716.62837    
    310000   291.66881      0.011046042    4.5878267      723.63835     -37.990157      685.6482     
    311000   305.7847       0.011046042    6.5296688      758.66027     -37.207975      721.45229    
    312000   314.70142      0.011046042    5.6408909      780.7829      -39.008152      741.77475    
    313000   292.85424      0.011046042    5.8410898      726.57944     -37.319014      689.26043    
    314000   296.91168      0.011046042    6.5493587      736.64606     -35.249963      701.39609    
    315000   311.46646      0.011046042    6.2128204      772.75688     -33.923114      738.83377    
    316000   301.65946      0.011046042    6.4292088      748.42544     -34.295283      714.13016    
    317000   305.98171      0.011046042    2.3103469      759.14905     -33.921703      725.22734    
    318000   300.03586      0.011046042    7.0598136      744.39724     -32.927681      711.46956    
    319000   295.03577      0.011046042    6.8986852      731.99188     -33.404542      698.58733    
    320000   305.06104      0.011046042    3.7269476      756.86484     -33.928882      722.93596    
    321000   301.91033      0.011046042    5.9399554      749.04785     -36.631959      712.41589    
    322000   299.72839      0.011046042    6.5539625      743.63441     -37.842418      705.79199    
    323000   292.61254      0.011046042    5.6462528      725.97977     -33.125319      692.85445    
    324000   298.31308      0.011046042    5.4141911      740.12297     -35.382885      704.74008    
    325000   306.99942      0.011046042    1.4812354      761.67403     -35.840633      725.8334     
    326000   293.54104      0.011046042    8.1968668      728.2834      -31.428258      696.85514    
    327000   310.45847      0.011046042    6.267145       770.25601     -39.651225      730.60479    
    328000   298.96349      0.011046042    6.2568518      741.73666     -36.11957       705.61709    
    329000   299.22718      0.011046042    5.1588502      742.39088     -32.903637      709.48725    
    330000   307.76323      0.011046042    6.1508961      763.56906     -31.25854       732.31052    
    331000   303.58535      0.011046042    6.9648669      753.20362     -31.986686      721.21694    
    332000   304.4025       0.011046042    6.0108379      755.23098     -29.207709      726.02327    
    333000   293.78223      0.011046042    6.0602027      728.88181     -30.77711       698.1047     
    334000   304.37781      0.011046042    6.1678152      755.16973     -32.06114       723.10859    
    335000   330.16379      0.011046042    6.2904206      819.14548     -30.606157      788.53932    
    336000   300.22263      0.011046042    4.6151977      744.86063     -33.699917      711.16071    
    337000   286.60768      0.011046042    5.9883379      711.08155     -33.536872      677.54468    
    338000   301.46254      0.011046042    8.2382628      747.93687     -32.717339      715.21953    
    339000   309.29668      0.011046042    6.6298483      767.3736      -32.944681      734.42892    
    340000   291.13564      0.011046042    3.7655008      722.31555     -34.047607      688.26795    
    341000   288.13915      0.011046042    6.2902319      714.88119     -32.925648      681.95554    
    342000   295.27973      0.011046042    6.5515765      732.59715     -29.578561      703.01859    
    343000   319.06444      0.011046042    6.0992537      791.60768     -29.831442      761.77624    
    344000   302.71825      0.011046042    6.3881559      751.05233     -31.681503      719.37083    
    345000   295.0673       0.011046042    6.9506032      732.07011     -33.681987      698.38813    
    346000   301.86772      0.011046042    5.0834216      748.94213     -33.419416      715.52271    
    347000   299.49834      0.011046042    5.4186231      743.06365     -33.651051      709.41259    
    348000   314.18184      0.011046042    6.2647569      779.4938      -31.933039      747.56076    
    349000   297.18063      0.011046042    5.8314395      737.31333     -32.266993      705.04633    
    350000   291.91775      0.011046042    6.1342954      724.25599     -31.00876       693.24723    
    351000   305.27312      0.011046042    4.7921211      757.39102     -30.017333      727.37368    
    352000   297.3652       0.011046042    5.7447091      737.77126     -29.412824      708.35843    
    353000   295.08548      0.011046042    6.195947       732.11522     -27.58247       704.53275    
    354000   292.63774      0.011046042    9.2399029      726.0423      -26.040445      700.00186    
    355000   292.39224      0.011046042    6.1299328      725.43321     -29.876712      695.5565     
    356000   304.10765      0.011046042    6.5299018      754.49945     -26.366904      728.13255    
    357000   300.80308      0.011046042    1.0962153      746.30073     -27.352832      718.9479     
    358000   304.31684      0.011046042    7.0831954      755.01847     -32.114197      722.90428    
    359000   305.71112      0.011046042    6.7341643      758.47772     -30.864927      727.6128     
    360000   289.20741      0.011046042    4.3126244      717.53156     -26.750062      690.7815     
    361000   299.0703       0.011046042    5.9445171      742.00165     -28.81215       713.1895     
    362000   297.62372      0.011046042    5.081321       738.41265     -26.021924      712.39072    
    363000   307.01651      0.011046042    6.3714453      761.71642     -28.436938      733.27948    
    364000   308.59793      0.011046042    9.5875198      765.63998     -25.575108      740.06487    
    365000   303.91504      0.011046042    4.9428403      754.02158     -30.394462      723.62712    
    366000   289.29144      0.011046042    5.7941704      717.74003     -27.115717      690.62432    
    367000   291.17447      0.011046042    6.8995381      722.41188     -27.862878      694.549      
    368000   320.51266      0.011046042    7.8355349      795.20075     -32.431384      762.76936    
    369000   309.25753      0.011046042    4.6091855      767.27647     -32.155225      735.12124    
    370000   288.71784      0.011046042    4.0783394      716.31692     -31.280097      685.03683    
    371000   290.88212      0.011046042    7.0209852      721.68656     -31.86016       689.8264     
    372000   311.87128      0.011046042    8.2174642      773.76123     -33.753982      740.00725    
    373000   302.83361      0.011046042    5.1426558      751.33854     -30.603741      720.7348     
    374000   285.37527      0.011046042    8.2668458      708.02391     -31.517586      676.50633    
    375000   303.54291      0.011046042    5.4968849      753.09832     -31.19669       721.90163    
    376000   306.32321      0.011046042    6.1840335      759.99634     -35.295166      724.70117    
    377000   296.92755      0.011046042    3.4022584      736.68543     -30.761939      705.92349    
    378000   294.90511      0.011046042    7.042885       731.66769     -30.9036        700.76409    
    379000   297.82982      0.011046042    6.5247319      738.924       -31.293677      707.63032    
    380000   303.64456      0.011046042    5.8319719      753.35053     -34.259402      719.09113    
    381000   298.61529      0.011046042    3.8278156      740.87277     -28.095287      712.77749    
    382000   296.35926      0.011046042    6.7406929      735.27549     -31.353451      703.92204    
    383000   300.19529      0.011046042    6.9113064      744.79279     -29.354257      715.43853    
    384000   303.9363       0.011046042    3.7416288      754.07435     -32.248087      721.82626    
    385000   300.52112      0.011046042    4.925179       745.60118     -34.113241      711.48794    
    386000   297.70019      0.011046042    6.3645829      738.60238     -33.976872      704.6255     
    387000   294.15786      0.011046042    6.4703203      729.81376     -32.463026      697.35074    
    388000   304.98051      0.011046042    4.7285723      756.66506     -29.366969      727.29809    
    389000   306.47067      0.011046042    4.0187889      760.36218     -32.296189      728.06599    
    390000   302.08657      0.011046042    6.5180937      749.4851      -34.141569      715.34353    
    391000   299.1521       0.011046042    7.7396236      742.2046      -32.375078      709.82952    
    392000   302.97485      0.011046042    1.7348191      751.68897     -32.442429      719.24654    
    393000   300.78876      0.011046042    5.0213869      746.26521     -29.024611      717.2406     
    394000   284.85554      0.011046042    9.2267268      706.73445     -30.141573      676.59288    
    395000   293.23228      0.011046042    6.4341133      727.51736     -30.821167      696.6962     
    396000   318.79516      0.011046042    6.1500148      790.93959     -36.264065      754.67552    
    397000   305.30218      0.011046042    5.5731043      757.46312     -33.707628      723.75549    
    398000   303.58886      0.011046042    5.2194639      753.21233     -28.875352      724.33698    
    399000   302.08994      0.011046042    3.8681639      749.49347     -27.783587      721.70988    
    400000   304.46797      0.011046042    5.6184919      755.39343     -26.798205      728.59522    
    401000   288.22286      0.011046042    6.2037654      715.08887     -24.786898      690.30197    
    402000   296.59414      0.011046042    5.9543868      735.85822     -25.833534      710.02469    
    403000   295.2624       0.011046042    5.6947363      732.55415     -25.36984       707.18431    
    404000   295.5786       0.011046042    6.0524557      733.33865     -23.083975      710.25468    
    405000   309.01795      0.011046042    4.5776736      766.68205     -23.960971      742.72108    
    406000   299.8405       0.011046042    6.9627455      743.91253     -25.917557      717.99498    
    407000   266.45639      0.011046042    5.778796       661.08565     -24.284887      636.80076    
    408000   295.96454      0.011046042    2.5832005      734.29617     -23.081551      711.21462    
    409000   321.31585      0.011046042    5.2876744      797.19347     -26.287697      770.90577    
    410000   307.1339       0.011046042    9.1354064      762.00767     -23.755767      738.2519     
    411000   290.66051      0.011046042    8.8603119      721.13673     -25.757417      695.37931    
    412000   293.21891      0.011046042    3.2757115      727.4842      -23.874015      703.61018    
    413000   307.5788       0.011046042    6.5516237      763.11148     -28.974013      734.13747    
    414000   296.46959      0.011046042    6.8287658      735.54924     -30.057457      705.49178    
    415000   286.70478      0.011046042    5.4823211      711.32246     -26.915597      684.40686    
    416000   310.39495      0.011046042    4.5771875      770.09842     -30.103335      739.99509    
    417000   312.03476      0.011046042    6.6685852      774.16684     -29.481325      744.68552    
    418000   300.17113      0.011046042    9.7360853      744.73285     -23.701145      721.03171    
    419000   290.21344      0.011046042    6.0031078      720.02754     -28.164193      691.86335    
    420000   280.15665      0.011046042    3.1941133      695.07637     -27.669156      667.40721    
    421000   305.0877       0.011046042    5.8539196      756.931       -28.733733      728.19726    
    422000   305.22441      0.011046042    6.0580108      757.27018     -32.153529      725.11665    
    423000   308.12253      0.011046042    5.8223872      764.46049     -32.081862      732.37863    
    424000   292.76207      0.011046042    5.5024247      726.35076     -30.961342      695.38941    
    425000   289.44797      0.011046042    5.8032821      718.12839     -28.779611      689.34878    
    426000   312.46845      0.011046042    6.0685118      775.24285     -28.426787      746.81606    
    427000   309.85179      0.011046042    6.1414019      768.75083     -24.766905      743.98392    
    428000   300.29488      0.011046042    6.5002233      745.03987     -27.112825      717.92705    
    429000   292.16063      0.011046042    5.602572       724.85856     -23.171825      701.68674    
    430000   307.05688      0.011046042    5.2851859      761.81659     -22.958632      738.85796    
    431000   297.14423      0.011046042    5.9812066      737.22302     -21.536258      715.68676    
    432000   295.98679      0.011046042    7.6140636      734.35139     -28.517816      705.83358    
    433000   293.98934      0.011046042    6.4048191      729.39565     -22.459913      706.93573    
    434000   313.25036      0.011046042    4.3748795      777.18279     -22.20247       754.98032    
    435000   308.57767      0.011046042    7.4439609      765.58971     -18.541745      747.04797    
    436000   300.72308      0.011046042    14.12917       746.10226     -18.387441      727.71482    
    437000   299.1114       0.011046042    5.6978306      742.10364     -21.892657      720.21098    
    438000   293.86646      0.011046042   -0.62811802     729.09078     -21.366822      707.72396    
    439000   306.15126      0.011046042    7.0358096      759.56972     -24.209734      735.35999    
    440000   292.61352      0.011046042    7.0276883      725.98221     -20.960502      705.02171    
    441000   295.01723      0.011046042    4.6191965      731.94588     -22.792132      709.15375    
    442000   302.08121      0.011046042    2.8736824      749.47182     -22.766736      726.70508    
    443000   310.07055      0.011046042    16.935009      769.29359     -21.437299      747.85629    
    444000   307.05261      0.011046042    6.8107431      761.80599     -19.979419      741.82657    
    445000   307.0259       0.011046042    7.3528342      761.73973     -21.443352      740.29638    
    446000   283.26624      0.011046042    16.666497      702.79136     -20.996864      681.7945     
    447000   297.96195      0.011046042    3.6272609      739.25182     -23.324374      715.92745    
    448000   308.56967      0.011046042    4.5363602      765.56986     -26.682655      738.8872     
    449000   307.69321      0.011046042    14.848511      763.39534     -25.634253      737.76109    
    450000   295.64111      0.011046042   -1.5694409      733.49374     -25.393593      708.10015    
    451000   295.17161      0.011046042   -2.4498122      732.32891     -26.990102      705.33881    
    452000   299.51495      0.011046042    11.590117      743.10485     -24.535086      718.56976    
    453000   303.62532      0.011046042    11.109323      753.30279     -24.708634      728.59415    
    454000   289.92679      0.011046042    8.1250363      719.31636     -22.741514      696.57485    
    455000   289.60179      0.011046042    2.0169069      718.51002     -22.207016      696.303      
    456000   305.36353      0.011046042    2.3594706      757.61533     -29.977735      727.63759    
    457000   303.39252      0.011046042    2.6476831      752.72522     -29.056084      723.66913    
    458000   306.77328      0.011046042    17.050597      761.11295     -26.282148      734.8308     
    459000   300.68521      0.011046042    5.3850634      746.0083      -23.248765      722.75953    
    460000   309.49737      0.011046042    5.295022       767.87149     -21.297075      746.57442    
    461000   317.08384      0.011046042    10.394996      786.69375     -26.366035      760.32771    
    462000   295.85616      0.011046042    6.6361759      734.02728     -20.827517      713.19977    
    463000   308.01674      0.011046042    6.1719732      764.19803     -22.014154      742.18387    
    464000   296.49074      0.011046042    4.8332         735.60171     -24.349328      711.25238    
    465000   308.56627      0.011046042    4.8611175      765.56143     -28.272746      737.28868    
    466000   301.26735      0.011046042    6.3471484      747.45261     -20.112489      727.34012    
    467000   287.2426       0.011046042    5.6304495      712.6568      -17.515241      695.14156    
    468000   308.76177      0.011046042    5.1546256      766.04646     -19.081126      746.96533    
    469000   305.9741       0.011046042    10.213707      759.13018     -20.760352      738.36983    
    470000   297.85724      0.011046042    7.4667449      738.99202     -18.506677      720.48534    
    471000   298.68057      0.011046042    2.5084031      741.03473     -19.585709      721.44902    
    472000   313.48723      0.011046042    3.5401184      777.77045     -17.161811      760.60864    
    473000   297.14408      0.011046042    6.8817126      737.22265     -19.741941      717.48071    
    474000   302.13401      0.011046042    9.0748422      749.60281     -23.113616      726.48919    
    475000   300.63368      0.011046042    6.1449242      745.88044     -22.035303      723.84513    
    476000   305.73887      0.011046042    3.3549249      758.54656     -27.087473      731.45909    
    477000   306.51151      0.011046042    7.4814633      760.4635      -25.375712      735.08779    
    478000   294.70934      0.011046042    11.128687      731.182       -26.210125      704.97187    
    479000   293.80822      0.011046042    4.2487639      728.9463      -23.224669      705.72163    
    480000   300.29004      0.011046042    3.1444653      745.02786     -22.703436      722.32442    
    481000   305.00242      0.011046042    7.9301534      756.7194      -21.666425      735.05298    
    482000   299.98916      0.011046042    5.671518       744.28138     -25.964489      718.31689    
    483000   290.28415      0.011046042    8.9232434      720.20298     -24.276701      695.92628    
    484000   293.70033      0.011046042    10.509586      728.67861     -24.047626      704.63098    
    485000   295.17132      0.011046042    8.5983807      732.32818     -25.315582      707.01259    
    486000   292.95414      0.011046042    5.5871631      726.82729     -22.660244      704.16705    
    487000   310.61255      0.011046042    4.4531721      770.63831     -25.19608       745.44223    
    488000   310.7638       0.011046042    7.5996288      771.01356     -24.697         746.31656    
    489000   281.10018      0.011046042    3.8375853      697.41729     -25.597519      671.81977    
    490000   302.67086      0.011046042    5.4170258      750.93475     -29.248569      721.68618    
    491000   312.70118      0.011046042    6.1213311      775.82026     -30.412791      745.40747    
    492000   304.75054      0.011046042    4.3061166      756.09449     -26.998409      729.09609    
    493000   283.94209      0.011046042    5.0250952      704.46816     -25.200294      679.26786    
    494000   283.83286      0.011046042    6.5869052      704.19715     -27.414295      676.78286    
    495000   302.72633      0.011046042    8.5610468      751.07237     -26.707457      724.36492    
    496000   304.89134      0.011046042    10.665437      756.44381     -23.029191      733.41462    
    497000   294.25124      0.011046042    5.6508284      730.04545     -25.165659      704.87979    
    498000   306.37701      0.011046042    2.8459888      760.1298      -24.521972      735.60783    
    499000   304.63479      0.011046042    3.2301805      755.80731     -25.14207       730.66524    
    500000   284.70858      0.011046042    12.053644      706.36983     -26.27715       680.09268    
    501000   310.34193      0.011046042    11.06547       769.96688     -26.965832      743.00105    
    502000   318.32337      0.011046042    6.688873       789.76906     -27.853916      761.91514    
    503000   308.09071      0.011046042    3.0760682      764.38155     -29.989252      734.3923     
    504000   282.3949       0.011046042    23.7496        700.62952     -23.610239      677.01928    
    505000   295.98908      0.011046042    6.4173335      734.35708     -24.852564      709.50451    
    506000   307.2249       0.011046042    6.5173981      762.23345     -25.601839      736.63161    
    507000   302.77859      0.011046042    4.4471735      751.20203     -22.374173      728.82786    
    508000   295.88254      0.011046042    4.2803529      734.09273     -23.611196      710.48153    
    509000   299.4827       0.011046042    1.0968471      743.02482     -24.410956      718.61387    
    510000   305.65147      0.011046042    10.608171      758.32973     -27.306523      731.02321    
    511000   300.74149      0.011046042   -1.2682122      746.14793     -27.946721      718.20121    
    512000   292.71675      0.011046042    6.2841081      726.23834     -21.285695      704.95264    
    513000   310.09968      0.011046042    8.013496       769.36585     -25.929288      743.43656    
    514000   296.18515      0.011046042   -1.0020333      734.84351     -27.253426      707.59008    
    515000   291.25924      0.011046042    3.4873863      722.62221     -25.734816      696.8874     
    516000   294.6032       0.011046042    7.443055       730.91867     -25.026724      705.89195    
    517000   311.10071      0.011046042    8.4355963      771.84944     -22.127878      749.72157    
    518000   313.99828      0.011046042    6.4514095      779.03838     -22.488025      756.55036    
    519000   289.10272      0.011046042    5.3212684      717.27181     -27.233352      690.03846    
    520000   303.14001      0.011046042    6.817011       752.09871     -24.547245      727.55147    
    521000   315.38322      0.011046042    4.2254498      782.47447     -27.673306      754.80116    
    522000   299.9674       0.011046042    4.7633589      744.22738     -24.714061      719.51332    
    523000   284.69412      0.011046042    6.3044874      706.33395     -24.697467      681.63648    
    524000   296.17867      0.011046042    7.3974626      734.82745     -27.533594      707.29386    
    525000   319.17072      0.011046042    4.2232041      791.87137     -25.691816      766.17955    
    526000   291.56004      0.011046042    5.5147341      723.36851     -26.115198      697.25331    
    527000   301.88275      0.011046042    8.6861374      748.97943     -24.918291      724.06114    
    528000   317.81442      0.011046042    6.0276065      788.50633     -22.35748       766.14885    
    529000   316.67915      0.011046042    4.5335881      785.68969     -25.49622       760.19347    
    530000   298.90251      0.011046042    5.8715359      741.58536     -27.507493      714.07786    
    531000   287.48197      0.011046042    5.9456629      713.25069     -24.200403      689.05029    
    532000   302.04494      0.011046042    5.5936815      749.38182     -20.104406      729.27742    
    533000   322.60659      0.011046042    6.684839       800.39585     -20.730237      779.66562    
    534000   293.92343      0.011046042    6.600588       729.23213     -16.053516      713.17861    
    535000   291.15737      0.011046042    6.8895324      722.36946     -19.098589      703.27087    
    536000   307.09614      0.011046042    6.7186901      761.914       -20.600326      741.31367    
    537000   312.56277      0.011046042    4.7828769      775.47685     -19.673804      755.80304    
    538000   292.39882      0.011046042    4.5668705      725.44954     -23.655387      701.79415    
    539000   299.37074      0.011046042    8.0957301      742.74705     -24.627787      718.11926    
    540000   306.01049      0.011046042    5.8368509      759.22045     -22.952535      736.26791    
    541000   298.19164      0.011046042    3.2296331      739.82169     -24.446352      715.37534    
    542000   294.12552      0.011046042    6.9794627      729.73353     -24.112378      705.62115    
    543000   305.08449      0.011046042    8.3712313      756.92303     -26.155258      730.76777    
    544000   305.50325      0.011046042    4.0451806      757.96198     -23.496887      734.46509    
    545000   310.37066      0.011046042    4.9023312      770.03815     -22.408159      747.62999    
    546000   298.79399      0.011046042    7.3847067      741.31613     -26.518325      714.79781    
    547000   297.20509      0.011046042    9.1294457      737.37402     -27.039034      710.33499    
    548000   302.15757      0.011046042    5.2114066      749.66127     -25.957033      723.70423    
    549000   307.36166      0.011046042    7.7680221      762.57275     -23.841516      738.73124    
    550000   296.79154      0.011046042    5.4780038      736.34799     -22.786274      713.56171    
    551000   289.0452       0.011046042    0.75454062     717.12912     -24.681643      692.44748    
    552000   295.37633      0.011046042    5.7281912      732.83682     -24.482508      708.35431    
    553000   305.89061      0.011046042    7.6647837      758.92304     -22.280803      736.64224    
    554000   306.71273      0.011046042    6.2443096      760.96275     -21.125598      739.83715    
    555000   299.95972      0.011046042    6.6181968      744.20832     -19.572397      724.63593    
    556000   301.97415      0.011046042    5.9897682      749.2062      -20.543043      728.66315    
    557000   304.2444       0.011046042    6.0516107      754.83875     -21.665334      733.17341    
    558000   291.41917      0.011046042    5.8658982      723.01899     -21.784859      701.23413    
    559000   316.04923      0.011046042    6.5672005      784.12685     -20.339442      763.78741    
    560000   298.51067      0.011046042    5.4036856      740.61321     -21.190588      719.42262    
    561000   299.49231      0.011046042    7.1651883      743.04869     -20.678236      722.37045    
    562000   298.41615      0.011046042    6.2303419      740.3787      -20.67874       719.69996    
    563000   303.63713      0.011046042    3.5939999      753.33208     -21.992592      731.33949    
    564000   297.44306      0.011046042    4.6567823      737.96443     -26.355324      711.60911    
    565000   293.61063      0.011046042    10.395034      728.45606     -25.593788      702.86227    
    566000   299.65958      0.011046042    6.9713431      743.46368     -26.220942      717.24274    
    567000   299.54616      0.011046042    0.74837894     743.18228     -29.104101      714.07818    
    568000   303.03213      0.011046042    6.3406733      751.83107     -25.374133      726.45694    
    569000   302.56804      0.011046042    10.83481       750.67965     -17.391213      733.28843    
    570000   296.33338      0.011046042    2.5598145      735.21129     -20.746666      714.46463    
    571000   283.1427       0.011046042    5.2107909      702.48484     -15.996844      686.488      
    572000   314.31626      0.011046042    6.9168572      779.82731     -18.251099      761.57621    
    573000   304.33809      0.011046042    4.3932993      755.07118     -19.67388       735.3973     
    574000   290.13767      0.011046042    6.7558852      719.83955     -21.301133      698.53841    
    575000   299.43486      0.011046042    7.4010637      742.90613     -22.786128      720.12       
    576000   301.95446      0.011046042    6.6816955      749.15734     -22.242539      726.9148     
    577000   303.80177      0.011046042    4.8127347      753.74058     -25.892893      727.84769    
    578000   286.02034      0.011046042    6.1031525      709.62434     -28.335086      681.28925    
    579000   304.09234      0.011046042    7.7558493      754.46147     -24.009061      730.4524     
    580000   312.52458      0.011046042    5.4972499      775.38211     -24.680062      750.70205    
    581000   280.63217      0.011046042    4.2655476      696.25615     -22.582304      673.67384    
    582000   299.67253      0.011046042    6.237877       743.4958      -26.042162      717.45364    
    583000   312.22262      0.011046042    5.7745506      774.63293     -24.360824      750.2721     
    584000   301.4209       0.011046042    4.6721455      747.83357     -29.736009      718.09756    
    585000   286.5126       0.011046042    6.5931603      710.84565     -29.389162      681.45649    
    586000   308.77875      0.011046042    6.5436102      766.08859     -24.674026      741.41456    
    587000   306.37432      0.011046042    5.4144316      760.12314     -25.030503      735.09264    
    588000   287.79894      0.011046042    5.2420799      714.03711     -22.266524      691.77059    
    589000   297.30355      0.011046042    6.2254707      737.6183      -19.7597        717.8586     
    590000   315.41275      0.011046042    9.2769717      782.54772     -21.553573      760.99415    
    591000   301.35667      0.011046042    4.7636985      747.67419     -18.572257      729.10194    
    592000   289.97995      0.011046042    7.0514315      719.44826     -18.638945      700.80931    
    593000   300.60892      0.011046042    8.1862812      745.81903     -15.596671      730.22236    
    594000   315.69577      0.011046042    3.4375451      783.24992     -15.351706      767.89821    
    595000   296.14826      0.011046042    3.940197       734.75199     -22.751041      712.00095    
    596000   287.34656      0.011046042    11.964369      712.91474     -21.262969      691.65177    
    597000   308.14531      0.011046042    7.3829639      764.51702     -25.133069      739.38395    
    598000   309.68466      0.011046042   -1.1275706      768.33617     -24.22366       744.11251    
    599000   297.78086      0.011046042    5.8476123      738.80252     -26.53933       712.26319    
    600000   305.35616      0.011046042    13.912427      757.59705     -23.832093      733.76495    
    601000   308.84474      0.011046042    3.5989808      766.2523      -24.267985      741.98432    
    602000   299.14467      0.011046042    3.0445655      742.18617     -24.533207      717.65296    
    603000   294.80393      0.011046042    6.0203503      731.41668     -22.747666      708.66901    
    604000   289.7145       0.011046042    7.3666154      718.78966     -23.513303      695.27636    
    605000   301.37951      0.011046042    6.3676304      747.73087     -23.19968       724.53119    
    606000   298.51518      0.011046042    5.7798175      740.62438     -21.111032      719.51335    
    607000   306.41662      0.011046042    5.8787061      760.22809     -20.847191      739.3809     
    608000   297.08907      0.011046042    6.3258969      737.08617     -25.236512      711.84966    
    609000   308.43672      0.011046042    6.6895739      765.23999     -25.775254      739.46474    
    610000   306.85047      0.011046042    5.4096667      761.30447     -22.226199      739.07827    
    611000   292.08772      0.011046042    6.6519734      724.67768     -23.035893      701.64178    
    612000   296.40125      0.011046042    6.8553544      735.37967     -26.068419      709.31125    
    613000   316.96888      0.011046042    8.7277416      786.40854     -24.770989      761.63755    
    614000   298.44712      0.011046042    3.773666       740.45553     -23.299881      717.15565    
    615000   292.06222      0.011046042    10.537725      724.61442     -23.864471      700.74995    
    616000   296.55479      0.011046042    6.4336578      735.7606      -20.756064      715.00453    
    617000   295.93142      0.011046042    2.5922182      734.214       -24.199351      710.01465    
    618000   307.57547      0.011046042    7.9298939      763.10322     -27.091465      736.01176    
    619000   305.53668      0.011046042    6.921157       758.04493     -25.679379      732.36555    
    620000   293.96398      0.011046042    3.1456211      729.33275     -28.28841       701.04434    
    621000   296.34485      0.011046042    5.1563032      735.23975     -23.795276      711.44447    
    622000   305.61975      0.011046042    9.7597116      758.25104     -23.084014      735.16702    
    623000   304.96183      0.011046042    12.082915      756.6187      -26.781773      729.83692    
    624000   307.0528       0.011046042    8.450783       761.80647     -21.972579      739.83389    
    625000   298.9445       0.011046042   -6.4260563      741.68953     -19.756303      721.93323    
    626000   296.28652      0.011046042    8.8142819      735.09502     -20.772341      714.32268    
    627000   294.94382      0.011046042    9.9568009      731.76374     -21.8304        709.93334    
    628000   303.96558      0.011046042    8.1142554      754.14699     -26.475731      727.67126    
    629000   295.7805       0.011046042    1.987405       733.83958     -25.467627      708.37195    
    630000   293.44475      0.011046042    7.8078157      728.04452     -26.094994      701.94953    
    631000   303.77471      0.011046042    8.2133035      753.67342     -25.820383      727.85304    
    632000   294.35481      0.011046042   -3.8052423      730.3024      -21.258798      709.0436     
    633000   289.84443      0.011046042    8.7038163      719.11201     -22.110861      697.00115    
    634000   302.17604      0.011046042    12.766956      749.70708     -26.762583      722.9445     
    635000   306.93847      0.011046042    9.3326579      761.52281     -22.035821      739.48699    
    636000   305.41824      0.011046042    0.036558013    757.75108     -21.667038      736.08404    
    637000   286.35812      0.011046042    2.2279047      710.4624      -21.02175       689.44065    
    638000   307.77099      0.011046042    6.3612631      763.58831     -22.58376       741.00455    
    639000   314.10747      0.011046042    4.6772278      779.3093      -24.420425      754.88888    
    640000   305.43795      0.011046042    5.1476737      757.79998     -25.541873      732.25811    
    641000   294.50862      0.011046042    1.6456252      730.684       -18.585187      712.09881    
    642000   286.86077      0.011046042    9.844531       711.70949     -24.759207      686.95028    
    643000   306.52895      0.011046042    6.8105556      760.50678     -24.248333      736.25844    
    644000   304.28459      0.011046042    5.1724872      754.93845     -20.940213      733.99824    
    645000   289.39095      0.011046042    5.1184799      717.98693     -23.970624      694.01631    
    646000   299.75359      0.011046042    7.0155853      743.69692     -28.169951      715.52697    
    647000   301.99624      0.011046042    5.9529866      749.261       -28.417658      720.84334    
    648000   288.76155      0.011046042    6.1554063      716.42537     -25.530652      690.89472    
    649000   291.53203      0.011046042    5.6208825      723.29901     -27.039821      696.25919    
    650000   307.38703      0.011046042    3.9791051      762.63568     -25.094388      737.5413     
    651000   297.39035      0.011046042    6.679274       737.83366     -19.650686      718.18297    
    652000   307.03473      0.011046042    8.1696836      761.76163     -22.020715      739.74091    
    653000   299.3824       0.011046042    5.5509939      742.77598     -19.989241      722.78674    
    654000   294.88741      0.011046042    5.5368217      731.6238      -23.137298      708.4865     
    655000   302.34144      0.011046042    6.3229411      750.11745     -23.151464      726.96599    
    656000   304.97127      0.011046042    5.9114484      756.64213     -24.620482      732.02164    
    657000   304.01646      0.011046042    4.288584       754.27322     -24.492873      729.78034    
    658000   301.62594      0.011046042    6.09604        748.34227     -27.165281      721.17699    
    659000   293.2426       0.011046042    7.0089548      727.54298     -23.827728      703.71525    
    660000   303.07896      0.011046042    5.5495491      751.94725     -27.991019      723.95623    
    661000   314.34138      0.011046042    6.7537061      779.88962     -23.835879      756.05374    
    662000   304.35725      0.011046042    6.2501097      755.11873     -25.83701       729.28172    
    663000   280.55703      0.011046042    5.1969088      696.06971     -28.235447      667.83427    
    664000   318.21714      0.011046042    6.9370673      789.5055      -25.906766      763.59873    
    665000   313.44895      0.011046042    4.4045019      777.67548     -24.915932      752.75955    
    666000   294.01595      0.011046042    6.9320552      729.46167     -25.279568      704.18211    
    667000   295.64918      0.011046042    7.9913475      733.51375     -25.086355      708.4274     
    668000   305.0777       0.011046042    5.9013259      756.90618     -24.346997      732.55919    
    669000   317.17835      0.011046042    6.9065461      786.92823     -26.022841      760.90539    
    670000   303.00279      0.011046042    6.7436946      751.75828     -24.051806      727.70647    
    671000   284.64214      0.011046042    5.9739304      706.20501     -21.770209      684.4348     
    672000   296.62027      0.011046042    5.1476625      735.92307     -20.423248      715.49983    
    673000   309.10785      0.011046042    5.7294893      766.9051      -20.641487      746.26362    
    674000   311.85345      0.011046042    7.0283689      773.71702     -19.371152      754.34586    
    675000   299.65628      0.011046042    7.6769482      743.45549     -22.718104      720.73739    
    676000   299.67159      0.011046042    6.1273185      743.49347     -26.460543      717.03293    
    677000   305.41328      0.011046042    6.0528374      757.73877     -26.101229      731.63754    
    678000   305.50598      0.011046042    5.6021958      757.96876     -26.695996      731.27276    
    679000   303.24149      0.011046042    9.932547       752.3505      -24.803827      727.54667    
    680000   292.24118      0.011046042    8.1037549      725.05841     -26.925458      698.13295    
    681000   295.77762      0.011046042    4.6212579      733.83243     -23.77675       710.05568    
    682000   307.24847      0.011046042    5.589252       762.29193     -24.117132      738.1748     
    683000   299.38923      0.011046042    7.951421       742.79294     -26.275952      716.51698    
    684000   297.95294      0.011046042    1.0683451      739.22946     -28.068975      711.16048    
    685000   307.08415      0.011046042    9.3153089      761.88423     -28.20405       733.68018    
    686000   301.82374      0.011046042    6.0372189      748.83303     -25.971155      722.86187    
    687000   288.87788      0.011046042    0.69400043     716.71397     -25.382772      691.3312     
    688000   303.50798      0.011046042    7.0198377      753.01167     -28.560428      724.45125    
    689000   300.36824      0.011046042    6.9872724      745.22188     -26.733031      718.48885    
    690000   291.2201       0.011046042    5.6901604      722.5251      -27.922404      694.6027     
    691000   299.21015      0.011046042    5.4727452      742.34864     -28.052996      714.29564    
    692000   301.76779      0.011046042    8.0000854      748.6942      -22.660073      726.03412    
    693000   295.64985      0.011046042    7.2956825      733.51543     -27.442425      706.07301    
    694000   301.56471      0.011046042    4.3932728      748.19035     -29.545623      718.64472    
    695000   305.83868      0.011046042    5.4748123      758.7942      -28.683569      730.11063    
    696000   291.59332      0.011046042    8.3882127      723.45106     -26.527929      696.92313    
    697000   309.95778      0.011046042    4.9337572      769.0138      -27.688321      741.32548    
    698000   311.09055      0.011046042    3.2366128      771.82423     -26.533105      745.29112    
    699000   296.77907      0.011046042    7.2386084      736.31705     -21.316616      715.00044    
    700000   289.79177      0.011046042    4.9367411      718.98136     -21.260292      697.72107    
    701000   292.17536      0.011046042    1.3819542      724.89513     -26.290711      698.60442    
    702000   313.17132      0.011046042    1.0732605      776.98668     -24.476208      752.51048    
    703000   300.93685      0.011046042    7.262235       746.63262     -21.316053      725.31656    
    704000   281.23883      0.011046042    6.113156       697.76128     -17.270806      680.49047    
    705000   306.19632      0.011046042    5.298204       759.6815      -20.134124      739.54738    
    706000   304.06312      0.011046042    5.9689303      754.38899     -19.602333      734.78665    
    707000   288.37133      0.011046042    7.1175212      715.45722     -22.124804      693.33242    
    708000   295.45272      0.011046042    1.1344181      733.02635     -19.967019      713.05933    
    709000   322.36588      0.011046042    4.4743114      799.79863     -18.807561      780.99107    
    710000   300.96493      0.011046042    7.3594416      746.70229     -23.943189      722.7591     
    711000   299.76655      0.011046042    6.1593001      743.72907     -26.768953      716.96012    
    712000   303.42051      0.011046042    5.7641224      752.79465     -25.228832      727.56581    
    713000   300.41152      0.011046042    6.8931255      745.32927     -23.73138       721.59789    
    714000   295.22351      0.011046042    3.1497853      732.45768     -22.970078      709.4876     
    715000   306.12201      0.011046042    6.6316154      759.49714     -18.162954      741.33419    
    716000   304.62985      0.011046042    6.1513629      755.79505     -24.449151      731.3459     
    717000   291.48047      0.011046042    6.6295047      723.17109     -23.670492      699.50059    
    718000   299.68095      0.011046042    4.4762718      743.5167      -24.082505      719.43419    
    719000   312.55409      0.011046042    6.1280866      775.45531     -26.474998      748.98032    
    720000   299.10902      0.011046042    6.7673155      742.09771     -27.088346      715.00937    
    721000   287.32716      0.011046042    6.1210123      712.8666      -29.60026       683.26634    
    722000   306.37781      0.011046042    4.1711024      760.13179     -27.722025      732.40977    
    723000   306.74359      0.011046042    6.6739785      761.0393      -26.912789      734.12651    
    724000   301.20143      0.011046042    6.5104713      747.28906     -28.464077      718.82498    
[...]
   3823000   298.51733      0.011046042    2.2993951      740.62973     -20.726263      719.90347    
   3824000   318.34543      0.011046042    5.7397669      789.8238      -19.645506      770.17829    
   3825000   307.16796      0.011046042    13.38079       762.09218     -20.326709      741.76547    
   3826000   288.9377       0.011046042    8.8984639      716.86239     -19.529487      697.3329     
   3827000   295.52945      0.011046042    0.44193517     733.21672     -20.938033      712.27869    
   3828000   311.67457      0.011046042    9.9820493      773.2732      -17.378242      755.89496    
   3829000   291.19494      0.011046042    8.7320451      722.46267     -17.632055      704.83062    
   3830000   291.0179       0.011046042   -2.1081745      722.02344     -20.644047      701.37939    
   3831000   312.86928      0.011046042    3.2099563      776.2373      -18.847794      757.38951    
   3832000   312.34786      0.011046042    12.115473      774.94365     -20.0845        754.85915    
   3833000   281.74607      0.011046042    6.3292474      699.01976     -19.803904      679.21585    
   3834000   287.00441      0.011046042    2.6253284      712.06585     -21.900292      690.16555    
   3835000   307.71228      0.011046042    10.608359      763.44264     -16.910099      746.53254    
   3836000   324.24696      0.011046042    17.14924       804.46564     -15.129016      789.33662    
   3837000   300.82409      0.011046042    6.8049986      746.35285     -16.469221      729.88363    
   3838000   283.45326      0.011046042    0.99365823     703.25535     -17.501496      685.75385    
   3839000   305.78038      0.011046042    4.8493637      758.64956     -19.318198      739.33136    
   3840000   303.8772       0.011046042    5.3405006      753.92771     -19.022588      734.90512    
   3841000   308.81705      0.011046042    6.5413396      766.18362     -19.023564      747.16005    
   3842000   289.71878      0.011046042    7.3238257      718.80028     -20.462668      698.33761    
   3843000   292.33665      0.011046042    6.1097584      725.29529     -19.753155      705.54214    
   3844000   292.70462      0.011046042    5.0242087      726.20824     -18.237629      707.97061    
   3845000   307.97939      0.011046042    6.2161975      764.10535     -19.935669      744.16968    
   3846000   302.36713      0.011046042    5.7381345      750.18119     -17.459739      732.72146    
   3847000   298.60589      0.011046042    6.6384995      740.84945     -16.578395      724.27105    
   3848000   288.74427      0.011046042    5.6744264      716.38249     -21.278307      695.10418    
   3849000   298.88147      0.011046042    6.3363848      741.53318     -21.089558      720.44362    
   3850000   305.6588       0.011046042    6.9833049      758.34792     -19.484656      738.86326    
   3851000   297.56985      0.011046042    5.8065643      738.279       -20.267705      718.0113     
   3852000   298.94724      0.011046042    5.6012365      741.69633     -20.10226       721.59407    
   3853000   300.8212       0.011046042    4.8798711      746.3457      -22.083488      724.26221    
   3854000   301.92659      0.011046042    6.6240833      749.08818     -23.637574      725.45061    
   3855000   301.29006      0.011046042    6.9868791      747.50895     -22.234729      725.27422    
   3856000   297.842        0.011046042    5.8782998      738.9542      -20.646656      718.30754    
   3857000   304.64932      0.011046042    5.2384418      755.84335     -17.290232      738.55312    
   3858000   297.17398      0.011046042    6.1660747      737.29683     -19.119871      718.17696    
   3859000   280.89799      0.011046042    5.692005       696.91565     -22.095046      674.8206     
   3860000   306.04179      0.011046042    4.2330414      759.29812     -19.500054      739.79806    
   3861000   314.7732       0.011046042    7.6313404      780.96099     -17.932699      763.02829    
   3862000   293.60818      0.011046042    5.4564431      728.44998     -16.751562      711.69842    
   3863000   297.92349      0.011046042    5.2884985      739.15639     -15.41144       723.74495    
   3864000   301.71756      0.011046042    6.9822786      748.56957     -17.986946      730.58263    
   3865000   302.65459      0.011046042    5.9702276      750.89438     -18.199882      732.6945     
   3866000   282.82927      0.011046042    4.7660382      701.7072      -15.047917      686.65929    
   3867000   292.81241      0.011046042    5.9112206      726.47567     -16.156728      710.31894    
   3868000   312.08689      0.011046042    6.019282       774.29617     -18.350385      755.94578    
   3869000   308.49865      0.011046042    6.3926817      765.39364     -20.452386      744.94126    
   3870000   293.59385      0.011046042    5.3742599      728.41443     -21.035565      707.37887    
   3871000   291.17687      0.011046042    6.4519394      722.41784     -20.370732      702.04711    
   3872000   311.55583      0.011046042    6.6735007      772.97861     -18.362541      754.61607    
   3873000   306.62273      0.011046042    5.549546       760.73946     -16.775836      743.96362    
   3874000   291.2958       0.011046042    4.877726       722.71292     -16.617972      706.09495    
   3875000   299.76083      0.011046042    4.962648       743.71488     -16.549723      727.16516    
   3876000   301.55781      0.011046042    9.3828681      748.17325     -14.059399      734.11385    
   3877000   287.87594      0.011046042    5.0893162      714.22813     -16.595907      697.63223    
   3878000   306.40859      0.011046042    5.5485417      760.20817     -18.754991      741.45317    
   3879000   303.52784      0.011046042    5.4309298      753.06094     -19.821313      733.23963    
   3880000   294.69233      0.011046042    10.265326      731.1398      -22.312201      708.8276     
   3881000   285.50667      0.011046042    2.4899071      708.34992     -22.616275      685.73364    
   3882000   305.20386      0.011046042    6.3242883      757.21918     -20.006499      737.21268    
   3883000   304.095        0.011046042    7.4079023      754.46808     -22.346485      732.1216     
   3884000   293.51423      0.011046042    6.3827639      728.21689     -21.660632      706.55626    
   3885000   296.13134      0.011046042    3.1785454      734.71002     -20.885686      713.82433    
   3886000   304.30741      0.011046042    12.32013       754.99507     -21.126528      733.86854    
   3887000   295.68002      0.011046042    8.7792412      733.59028     -17.626079      715.9642     
   3888000   298.91619      0.011046042    3.8108167      741.61932     -18.063692      723.55563    
   3889000   306.21935      0.011046042    4.0586685      759.73864     -20.346712      739.39193    
   3890000   315.84383      0.011046042    5.2659968      783.61725     -24.15354       759.46371    
   3891000   288.09247      0.011046042    7.0180743      714.76536     -19.360979      695.40438    
   3892000   291.74611      0.011046042    5.107966       723.83015     -15.443812      708.38634    
   3893000   311.20152      0.011046042    6.1116424      772.09954     -13.256879      758.84266    
   3894000   314.0356       0.011046042    6.541498       779.13099     -14.079185      765.05181    
   3895000   295.03633      0.011046042    6.2064213      731.99327     -16.612882      715.38039    
   3896000   287.5194       0.011046042    5.6699467      713.34356     -17.96743       695.37613    
   3897000   295.8759       0.011046042    6.438677       734.07626     -16.57236       717.5039     
   3898000   315.19165      0.011046042    6.4494662      781.99917     -12.681082      769.31809    
   3899000   300.8351       0.011046042    5.3399635      746.38018     -18.208216      728.17197    
   3900000   288.35532      0.011046042    6.7248731      715.41751     -22.959848      692.45766    
   3901000   298.86719      0.011046042    6.6373671      741.49773     -21.484063      720.01367    
   3902000   307.18338      0.011046042    5.9667454      762.13042     -19.842473      742.28795    
   3903000   300.95359      0.011046042    5.5915319      746.67416     -21.942792      724.73137    
   3904000   301.76941      0.011046042    6.2487446      748.69822     -17.088253      731.60997    
   3905000   294.9328       0.011046042    6.141262       731.7364      -18.682099      713.05431    
   3906000   304.52134      0.011046042    7.9257941      755.52583     -19.533429      735.9924     
   3907000   315.746        0.011046042    6.2811233      783.37453     -19.892996      763.48153    
   3908000   308.19848      0.011046042    7.6306324      764.64893     -21.851049      742.79788    
   3909000   296.24722      0.011046042    5.9231846      734.99751     -20.470877      714.52664    
   3910000   300.05203      0.011046042    7.3621704      744.43735     -16.746317      727.69103    
   3911000   301.52991      0.011046042    5.352649       748.10402     -16.167074      731.93695    
   3912000   314.3313       0.011046042    3.7688862      779.86462     -13.828281      766.03634    
   3913000   307.69744      0.011046042    6.6460495      763.40584     -14.215041      749.1908     
   3914000   287.83582      0.011046042    6.1323562      714.12859     -16.883659      697.24493    
   3915000   290.53836      0.011046042    6.0431212      720.83367     -16.646719      704.18695    
   3916000   308.53521      0.011046042    6.2291847      765.48437     -14.61432       750.87005    
   3917000   307.25459      0.011046042    6.1706933      762.30711     -14.782866      747.52425    
   3918000   293.23635      0.011046042    5.6688648      727.52748     -16.911432      710.61605    
   3919000   280.52225      0.011046042    6.7585875      695.98344     -14.413092      681.57035    
   3920000   316.87746      0.011046042    8.4316655      786.1817      -15.070215      771.11149    
   3921000   302.44588      0.011046042    4.5959397      750.37656     -17.916471      732.46009    
   3922000   282.90961      0.011046042    8.4604741      701.90653     -19.776844      682.12969    
   3923000   305.5148       0.011046042    8.0164166      757.99064     -19.480792      738.50985    
   3924000   321.9097       0.011046042    1.5781976      798.66683     -19.654587      779.01224    
   3925000   310.61426      0.011046042    5.5215235      770.64255     -25.412508      745.23004    
   3926000   289.08898      0.011046042    7.057431       717.23772     -15.83689       701.40083    
   3927000   281.8171       0.011046042    9.6094453      699.196       -25.804751      673.39125    
   3928000   307.32232      0.011046042    8.1527281      762.47514     -20.62744       741.8477     
   3929000   314.38997      0.011046042    9.3867835      780.01018     -22.670538      757.33964    
   3930000   303.21204      0.011046042    4.4231061      752.27742     -21.253029      731.02439    
   3931000   289.82069      0.011046042    1.5824553      719.05311     -25.143876      693.90924    
   3932000   295.75723      0.011046042    7.6113053      733.78183     -24.458101      709.32373    
   3933000   317.66089      0.011046042    8.6669366      788.12543     -23.653297      764.47213    
   3934000   302.70581      0.011046042    5.6405085      751.02146     -23.044137      727.97732    
   3935000   297.22512      0.011046042    6.0893842      737.42372     -22.33057       715.09315    
   3936000   298.58635      0.011046042    6.2357222      740.80097     -21.206898      719.59408    
   3937000   305.2825       0.011046042    2.4685627      757.41429     -23.63658       733.77771    
   3938000   298.58         0.011046042    7.0376604      740.78522     -17.883452      722.90177    
   3939000   294.45673      0.011046042    13.037689      730.55527     -17.500459      713.05481    
   3940000   308.86387      0.011046042    8.6017444      766.29979     -16.185206      750.11458    
   3941000   306.65153      0.011046042    2.240664       760.81091     -18.882878      741.92803    
   3942000   292.71223      0.011046042    5.4039225      726.22712     -18.840562      707.38656    
   3943000   301.40422      0.011046042    8.3975387      747.79219     -21.446204      726.34598    
   3944000   306.77112      0.011046042    6.5548743      761.10761     -22.034025      739.07358    
   3945000   295.04699      0.011046042    3.5696635      732.01972     -20.104122      711.91559    
   3946000   289.21266      0.011046042    5.5386436      717.54459     -20.392559      697.15203    
   3947000   290.14119      0.011046042    6.3341522      719.84828     -19.037197      700.81109    
   3948000   311.3801       0.011046042    5.4263348      772.54262     -21.318458      751.22416    
   3949000   305.06963      0.011046042    7.5377963      756.88616     -20.019209      736.86695    
   3950000   290.96861      0.011046042    5.6633706      721.90113     -20.055218      701.84592    
   3951000   299.98362      0.011046042   -0.99091606     744.26763     -21.271051      722.99657    
   3952000   318.69252      0.011046042    5.2227479      790.68493     -21.868126      768.81681    
   3953000   306.98145      0.011046042    11.083353      761.62944     -21.724942      739.9045     
   3954000   283.59531      0.011046042    6.6996359      703.60778     -20.02706       683.58072    
   3955000   283.14443      0.011046042    7.6843739      702.48914     -16.678972      685.81016    
   3956000   300.36336      0.011046042    3.6034998      745.20979     -15.734474      729.47531    
   3957000   303.02513      0.011046042    11.24001       751.8137      -16.710851      735.10284    
   3958000   295.99249      0.011046042    8.8305737      734.36552     -16.220168      718.14535    
   3959000   311.80996      0.011046042    3.4508751      773.6091      -14.470491      759.1386     
   3960000   305.71172      0.011046042    3.4933325      758.47919     -14.593141      743.88605    
   3961000   298.78618      0.011046042    7.9200654      741.29674     -17.319396      723.97734    
   3962000   295.15235      0.011046042    6.7416848      732.28111     -18.99178       713.28933    
   3963000   302.89158      0.011046042    5.9254888      751.48237     -18.800866      732.6815     
   3964000   305.29875      0.011046042    6.4054561      757.4546      -22.180491      735.27411    
   3965000   293.04944      0.011046042    6.7011423      727.06374     -24.016353      703.04739    
   3966000   292.14391      0.011046042    4.8048164      724.81709     -19.613896      705.20319    
   3967000   301.84636      0.011046042    5.5947915      748.88915     -18.321023      730.56813    
   3968000   303.84413      0.011046042    6.0345077      753.84565     -21.277612      732.56804    
   3969000   296.48779      0.011046042    5.1510096      735.59437     -19.122975      716.4714     
   3970000   292.7529       0.011046042    6.119984       726.32802     -16.020337      710.30769    
   3971000   298.15635      0.011046042    7.9328271      739.73412     -18.838406      720.89571    
   3972000   302.60903      0.011046042    5.849271       750.78134     -16.399225      734.38212    
   3973000   305.29733      0.011046042    5.4912369      757.45109     -19.702649      737.74844    
   3974000   293.96017      0.011046042    5.7272426      729.32329     -18.347679      710.97561    
   3975000   297.29705      0.011046042    5.0437298      737.60217     -18.397351      719.20482    
   3976000   303.74181      0.011046042    5.9103762      753.59181     -16.446512      737.1453     
   3977000   295.06813      0.011046042    5.4022682      732.07216     -16.699777      715.37239    
   3978000   293.77642      0.011046042    5.6738864      728.86739     -19.079083      709.78831    
   3979000   290.82014      0.011046042    6.3943799      721.53278     -20.59939       700.93339    
   3980000   305.94574      0.011046042    7.0890483      759.05982     -20.202799      738.85702    
   3981000   319.4335       0.011046042    4.3087333      792.52331     -24.349841      768.17347    
   3982000   292.25799      0.011046042    5.3293179      725.10014     -25.847215      699.25292    
   3983000   298.45916      0.011046042    8.6045593      740.48541     -21.197688      719.28773    
   3984000   303.15986      0.011046042    5.3574342      752.14798     -26.415478      725.7325     
   3985000   301.77344      0.011046042    5.0816746      748.70823     -24.196089      724.51214    
   3986000   309.64894      0.011046042    7.03511        768.24755     -18.268584      749.97896    
   3987000   296.8541       0.011046042    4.677395       736.50321     -18.392427      718.11078    
   3988000   281.31483      0.011046042    4.7254165      697.94985     -17.841032      680.10882    
   3989000   310.2197       0.011046042    7.1200597      769.66364     -21.34211       748.32153    
   3990000   304.21094      0.011046042    5.6605794      754.75572     -21.745094      733.01063    
   3991000   291.36027      0.011046042    1.6136763      722.87286     -20.031032      702.84182    
   3992000   299.80763      0.011046042    3.2239684      743.83101     -22.734799      721.09621    
   3993000   295.14856      0.011046042    13.32731       732.27172     -21.024466      711.24726    
   3994000   294.58895      0.011046042    7.9525362      730.88331     -18.743811      712.1395     
   3995000   303.29669      0.011046042   -3.3754082      752.48745     -19.835705      732.65175    
   3996000   297.26147      0.011046042    8.6933584      737.51389     -17.096415      720.41747    
   3997000   310.41159      0.011046042    5.7007633      770.13972     -11.102876      759.03685    
   3998000   300.52558      0.011046042    4.4019825      745.61226     -12.308726      733.30353    
   3999000   279.15668      0.011046042    4.6733024      692.59541     -14.39302       678.20239    
   4000000   302.77462      0.011046042    8.4085549      751.19218     -16.38292       734.80926    
Loop time of 7795.89 on 1 procs for 4000000 steps with 1500 atoms

Performance: 11.083 ns/day, 2.166 hours/ns, 513.091 timesteps/s, 769.636 katom-step/s
100.0% CPU use with 1 MPI tasks x 1 OpenMP threads

MPI task timing breakdown:
Section |  min time  |  avg time  |  max time  |%varavg| %total
---------------------------------------------------------------
Pair    | 805.31     | 805.31     | 805.31     |   0.0 | 10.33
Bond    | 90.216     | 90.216     | 90.216     |   0.0 |  1.16
Kspace  | 6386.5     | 6386.5     | 6386.5     |   0.0 | 81.92
Neigh   | 0.026969   | 0.026969   | 0.026969   |   0.0 |  0.00
Comm    | 18.045     | 18.045     | 18.045     |   0.0 |  0.23
Output  | 0.09002    | 0.09002    | 0.09002    |   0.0 |  0.00
Modify  | 482.86     | 482.86     | 482.86     |   0.0 |  6.19
Other   |            | 12.83      |            |       |  0.16

Nlocal:           1500 ave        1500 max        1500 min
Histogram: 1 0 0 0 0 0 0 0 0 0
Nghost:           1045 ave        1045 max        1045 min
Histogram: 1 0 0 0 0 0 0 0 0 0
Neighs:              0 ave           0 max           0 min
Histogram: 1 0 0 0 0 0 0 0 0 0

Total # of neighbors = 0
Ave neighs/atom = 0
Ave special neighs/atom = 2
Neighbor list builds = 16257
Dangerous builds = 0
write_data	last_conf.data pair ij
System init for write_data ...
PPPM initialization ...
  using 12-bit tables for long-range coulomb (src/kspace.cpp:342)
  G vector (1/distance) = 0.16146867
  grid = 30 30 30
  stencil order = 5
  estimated absolute RMS force accuracy = 0.033120649
  estimated relative force accuracy = 9.9741851e-05
  using double precision FFTW3
  3d grid and FFT values/proc = 42875 27000
Generated 1 of 1 mixed pair_coeff terms from arithmetic mixing rule
Total wall time: 2:09:55
