LAMMPS data file via write_data, version 29 Aug 2024, timestep = 0, units = real

1500 atoms
2 atom types
1000 bonds
1 bond types
500 angles
1 angle types

0 139 xlo xhi
0 139 ylo yhi
0 139 zlo zhi

Masses

1 12.0107
2 15.9994

PairIJ Coeffs # lj/cut/coul/long/gpu

1 1 0.053649 2.8 12
1 2 0.0917684 2.925 12
2 2 0.156973 3.05 12

Bond Coeffs # harmonic

1 0 1.16

Angle Coeffs # harmonic

1 0 180

Atoms # full

1 1 1 0.7 10.241057324801133 39.450457932637285 13.846473834871535 0 0 0
2 1 2 -0.35 9.233396580558917 39.68814395827084 13.323286318074977 0 0 0
3 1 2 -0.35 11.248718069043349 39.21277190700373 14.369661351668093 0 0 0
4 2 1 0.7 31.685742685890638 33.27732176393146 94.94688639601083 0 0 0
5 2 2 -0.35 32.03306254202022 33.77788885474367 93.95976861928207 0 0 0
6 2 2 -0.35 31.338422829761054 32.77675467311925 95.93400417273958 0 0 0
7 3 1 0.7 52.31965775383621 22.487868725083707 12.60966248186755 0 0 0
8 3 2 -0.35 51.857048898883235 21.4241055102472 12.608729701191518 0 0 0
9 3 2 -0.35 52.782266608789186 23.551631939920217 12.610595262543583 0 0 0
10 4 1 0.7 94.59733274793128 15.37149448104738 86.7077429633158 0 0 0
11 4 2 -0.35 93.51227343017227 15.570538419198542 87.06639012645756 0 0 0
12 4 2 -0.35 95.68239206569028 15.172450542896218 86.34909580017403 0 0 0
13 5 1 0.7 21.03598444863967 74.7906282869124 29.08961813668237 0 0 0
14 5 2 -0.35 20.86332567359525 75.07560673643263 30.200732996050743 0 0 0
15 5 2 -0.35 21.208643223684092 74.50564983739216 27.978503277313994 0 0 0
16 6 1 0.7 46.2120232205894 92.47426844596596 56.029771349872355 0 0 0
17 6 2 -0.35 45.12454903619999 92.64782809115621 55.665248445450686 0 0 0
18 6 2 -0.35 47.299497404978815 92.30070880077571 56.394294254294024 0 0 0
19 7 1 0.7 106.36707730468692 32.46825987308671 119.04368696829475 0 0 0
20 7 2 -0.35 105.34570470512175 32.730935989334036 118.5605728298029 0 0 0
21 7 2 -0.35 107.38844990425208 32.20558375683938 119.5268011067866 0 0 0
22 8 1 0.7 1.2468761299955082 106.24711683450599 101.29263754202641 0 0 0
23 8 2 -0.35 0.7719827302658048 107.26454911632938 101.58402699069748 0 0 0
24 8 2 -0.35 1.7217695297252118 105.2296845526826 101.00124809335534 0 0 0
25 9 1 0.7 92.35916883794552 67.55065935037595 110.93170176862353 0 0 0
26 9 2 -0.35 92.01841183489674 68.26267792552967 110.08169340777684 0 0 0
27 9 2 -0.35 92.6999258409943 66.83864077522223 111.78171012947021 0 0 0
28 10 1 0.7 22.11162525560317 83.0856709224571 26.87119373626597 0 0 0
29 10 2 -0.35 22.118204565577514 82.12612894823984 27.522988115188884 0 0 0
30 10 2 -0.35 22.105045945628824 84.04521289667436 26.219399357343054 0 0 0
31 11 1 0.7 13.153125422146696 54.57897001950953 47.7491178967753 0 0 0
32 11 2 -0.35 12.75871445059415 54.54979194066187 48.83961715181115 0 0 0
33 11 2 -0.35 13.547536393699241 54.6081480983572 46.65861864173946 0 0 0
34 12 1 0.7 72.42449110253924 15.421960376865213 100.88805397361892 0 0 0
35 12 2 -0.35 71.50515232391247 16.105368668146802 101.07072667962787 0 0 0
36 12 2 -0.35 73.343829881166 14.738552085583626 100.70538126760998 0 0 0
37 13 1 0.7 103.52313461318758 50.32344384366807 110.12068052921477 0 0 0
38 13 2 -0.35 103.60810479000972 49.1726012856596 110.00260650274267 0 0 0
39 13 2 -0.35 103.43816443636544 51.474286401676544 110.23875455568687 0 0 0
40 14 1 0.7 13.277654512449008 62.53939073045709 120.54000679242424 0 0 0
41 14 2 -0.35 12.57663510693995 62.19855878471259 121.39907918626525 0 0 0
42 14 2 -0.35 13.978673917958066 62.8802226762016 119.68093439858322 0 0 0
43 15 1 0.7 129.89416027436693 136.15173128487157 84.14770483651557 0 0 0
44 15 2 -0.35 129.1075231971531 136.15784625303178 83.29519987118286 0 0 0
45 15 2 -0.35 130.68079735158074 136.14561631671137 85.00020980184829 0 0 0
46 16 1 0.7 84.47518731722384 28.473240581095798 111.75444647704924 0 0 0
47 16 2 -0.35 83.32566001360294 28.32306525770025 111.71401937632339 0 0 0
48 16 2 -0.35 85.62471462084474 28.623415904491345 111.79487357777509 0 0 0
49 17 1 0.7 88.98193976654763 18.46165636575858 37.05853930444389 0 0 0
50 17 2 -0.35 88.01021329657033 19.03334513560252 37.331522120715874 0 0 0
51 17 2 -0.35 89.95366623652492 17.889967595914637 36.785556488171906 0 0 0
52 18 1 0.7 122.87008978839502 93.59907355513381 56.62924113386741 0 0 0
53 18 2 -0.35 122.05445125150655 94.22085900857876 56.0872848376343 0 0 0
54 18 2 -0.35 123.68572832528349 92.97728810168887 57.17119743010052 0 0 0
55 19 1 0.7 34.65573690955328 48.970238862079675 23.80455497317228 0 0 0
56 19 2 -0.35 34.4759962710453 49.281857463834285 22.701746218260872 0 0 0
57 19 2 -0.35 34.83547754806127 48.658620260325065 24.907363728083688 0 0 0
58 20 1 0.7 41.15543410654899 35.381028768783914 6.9505169512473595 0 0 0
59 20 2 -0.35 42.075893232979865 35.31633689235437 7.653489182344811 0 0 0
60 20 2 -0.35 40.23497498011811 35.445720645213456 6.247544720149908 0 0 0
61 21 1 0.7 57.338399614365024 138.48231863299492 56.32926474573522 0 0 0
62 21 2 -0.35 58.14803628549408 137.75384814796115 56.728538102218884 0 0 0
63 21 2 -0.35 56.52876294323597 0.2107891180286856 55.92999138925156 0 1 0
64 22 1 0.7 135.95258157185864 73.03847822828148 48.703582726746596 0 0 0
65 22 2 -0.35 135.02727655932884 72.35410482634802 48.558518325485544 0 0 0
66 22 2 -0.35 136.87788658438845 73.72285163021493 48.84864712800765 0 0 0
67 23 1 0.7 129.11488843016087 104.92984571397763 62.916914822029376 0 0 0
68 23 2 -0.35 129.87752717540735 105.5295572543628 62.281046744062145 0 0 0
69 23 2 -0.35 128.3522496849144 104.33013417359246 63.55278289999661 0 0 0
70 24 1 0.7 71.58741384771997 124.6645386296625 89.90074873757584 0 0 0
71 24 2 -0.35 70.76797613256004 125.40441544398581 90.25670397436869 0 0 0
72 24 2 -0.35 72.40685156287991 123.92466181533919 89.54479350078299 0 0 0
73 25 1 0.7 31.884032437058178 29.93316963684427 45.78208644165755 0 0 0
74 25 2 -0.35 30.840211770129986 29.449803378212145 45.632435262879795 0 0 0
75 25 2 -0.35 32.927853103986365 30.416535895476393 45.9317376204353 0 0 0
76 26 1 0.7 94.52682493837868 81.34673933049046 129.647927553229 0 0 0
77 26 2 -0.35 93.44575879496129 81.64364765551244 129.35003253801509 0 0 0
78 26 2 -0.35 95.60789108179607 81.04983100546849 129.94582256844294 0 0 0
79 27 1 0.7 28.71838711980655 61.93232258871772 64.54574857863865 0 0 0
80 27 2 -0.35 27.871702498742465 61.8580860162447 63.75630948424249 0 0 0
81 27 2 -0.35 29.565071740870636 62.00655916119074 65.33518767303481 0 0 0
82 28 1 0.7 64.3963611798344 55.642349476759485 127.96765589665978 0 0 0
83 28 2 -0.35 63.56606445053062 56.19690178917581 128.5581464335028 0 0 0
84 28 2 -0.35 65.22665790913818 55.08779716434316 127.37716535981677 0 0 0
85 29 1 0.7 5.392655160926588 6.355289693155926 61.35387287165685 0 0 0
86 29 2 -0.35 4.233282486085043 6.380083517332614 61.38286023292787 0 0 0
87 29 2 -0.35 6.552027835768133 6.330495868979239 61.324885510385826 0 0 0
88 30 1 0.7 72.54135393655922 33.53561175080743 127.02669582051536 0 0 0
89 30 2 -0.35 71.6215284472229 33.5846460628359 126.3216307842165 0 0 0
90 30 2 -0.35 73.46117942589554 33.486577438778966 127.73176085681422 0 0 0
91 31 1 0.7 36.67665540179082 98.5473378983081 100.10805686428586 0 0 0
92 31 2 -0.35 36.98883554342477 97.56179588593015 99.58189101494989 0 0 0
93 31 2 -0.35 36.364475260156865 99.53287991068605 100.63422271362182 0 0 0
94 32 1 0.7 60.11171805258455 45.64530978847542 19.721614906434723 0 0 0
95 32 2 -0.35 59.320346778120445 44.797855040299126 19.687674432859378 0 0 0
96 32 2 -0.35 60.903089327048654 46.49276453665172 19.75555538001007 0 0 0
97 33 1 0.7 85.18173244836821 88.37725972448348 2.6041893938575824 0 0 0
98 33 2 -0.35 84.04060093627653 88.21389396285775 2.733535828055851 0 0 0
99 33 2 -0.35 86.32286396045988 88.5406254861092 2.474842959659314 0 0 0
100 34 1 0.7 122.61114256438387 50.473079599660394 123.0488314922195 0 0 0
101 34 2 -0.35 121.61252494110587 50.42067198080657 122.46094010432147 0 0 0
102 34 2 -0.35 123.60976018766186 50.52548721851422 123.63672288011755 0 0 0
103 35 1 0.7 39.710889733261844 81.92374693179679 97.41468270840807 0 0 0
104 35 2 -0.35 38.564678172535984 82.10194902246108 97.40811971052109 0 0 0
105 35 2 -0.35 40.857101293987704 81.74554484113249 97.42124570629504 0 0 0
106 36 1 0.7 106.57228021443461 6.313564002659899 55.070192704941235 0 0 0
107 36 2 -0.35 105.59164741717812 5.758715808758658 55.34606006196168 0 0 0
108 36 2 -0.35 107.5529130116911 6.868412196561141 54.79432534792079 0 0 0
109 37 1 0.7 102.72879194735027 43.806259116067665 107.79696374935888 0 0 0
110 37 2 -0.35 101.56958528404633 43.80368011179328 107.75414715808084 0 0 0
111 37 2 -0.35 103.88799861065422 43.80883812034205 107.83978034063692 0 0 0
112 38 1 0.7 17.56973547468415 58.5441230165512 109.07553917592183 0 0 0
113 38 2 -0.35 17.612723583661854 59.153405201257186 108.08937121766806 0 0 0
114 38 2 -0.35 17.52674736570645 57.93484083184521 110.0617071341756 0 0 0
115 39 1 0.7 100.58692971830578 46.527775565408064 117.32392781336044 0 0 0
116 39 2 -0.35 99.79834285390237 45.813204573514184 116.86227961956543 0 0 0
117 39 2 -0.35 101.3755165827092 47.24234655730194 117.78557600715546 0 0 0
118 40 1 0.7 9.254759148813207 3.737014103558387 118.99603850580567 0 0 0
119 40 2 -0.35 9.003080889321842 3.777594994470237 120.12767945813648 0 0 0
120 40 2 -0.35 9.506437408304572 3.696433212646537 117.86439755347486 0 0 0
121 41 1 0.7 34.41916707596703 103.94104577784475 124.15638823674823 0 0 0
122 41 2 -0.35 33.89813464522697 104.69376705184781 123.44397270506725 0 0 0
123 41 2 -0.35 34.940199506707096 103.18832450384168 124.8688037684292 0 0 0
124 42 1 0.7 28.41709502759254 2.1161287478712056 120.77586547135182 0 0 0
125 42 2 -0.35 27.274474697450827 1.949648264795793 120.88678449542714 0 0 0
126 42 2 -0.35 29.559715357734255 2.282609230946618 120.6649464472765 0 0 0
127 43 1 0.7 62.970977010191866 7.210610294812643 119.7272249160927 0 0 0
128 43 2 -0.35 64.07603658219938 7.268376601980636 119.37922147347932 0 0 0
129 43 2 -0.35 61.86591743818436 7.1528439876446495 120.07522835870607 0 0 0
130 44 1 0.7 91.46916476984934 121.25228685804282 8.185223125938895 0 0 0
131 44 2 -0.35 90.84838591419494 122.13460866475843 7.758911219271358 0 0 0
132 44 2 -0.35 92.08994362550375 120.36996505132721 8.611535032606433 0 0 0
133 45 1 0.7 98.04507765501974 137.6201479167771 21.826037273195592 0 0 0
134 45 2 -0.35 96.9231130656189 137.38815459938473 22.00762626189235 0 0 0
135 45 2 -0.35 99.16704224442057 137.8521412341695 21.644448284498832 0 0 0
136 46 1 0.7 9.208450598273636 59.42920518500228 111.65154433327332 0 0 0
137 46 2 -0.35 8.90070172582539 59.08647604067248 112.71616979095025 0 0 0
138 46 2 -0.35 9.516199470721881 59.77193432933208 110.5869188755964 0 0 0
139 47 1 0.7 27.505609324903045 111.77592364548516 32.94870966903339 0 0 0
140 47 2 -0.35 26.78199938714847 111.924183405549 33.84314116530833 0 0 0
141 47 2 -0.35 28.22921926265762 111.62766388542133 32.05427817275845 0 0 0
142 48 1 0.7 131.96340744428497 24.988916097203695 69.7128457025219 0 0 0
143 48 2 -0.35 130.95335909698719 24.423938562655106 69.79160306139346 0 0 0
144 48 2 -0.35 132.97345579158275 25.553893631752285 69.63408834365035 0 0 0
145 49 1 0.7 32.79772228551922 96.31845272160994 30.234892098342485 0 0 0
146 49 2 -0.35 32.97789405673511 95.42771830506611 29.51396884858476 0 0 0
147 49 2 -0.35 32.61755051430333 97.20918713815378 30.95581534810021 0 0 0
148 50 1 0.7 112.83149684212705 120.96742562948141 85.52255469398692 0 0 0
149 50 2 -0.35 112.16170472673602 120.17480561423025 86.04094839917946 0 0 0
150 50 2 -0.35 113.50128895751808 121.76004564473257 85.00416098879438 0 0 0
151 51 1 0.7 117.57674183816496 88.30007403870115 95.34436845050396 0 0 0
152 51 2 -0.35 116.75283207150387 88.85501266475369 95.94338081908697 0 0 0
153 51 2 -0.35 118.40065160482605 87.74513541264862 94.74535608192096 0 0 0
154 52 1 0.7 60.8005476201887 85.80385251147851 119.34916041947396 0 0 0
155 52 2 -0.35 60.74940116088455 84.64501236137463 119.35773632804776 0 0 0
156 52 2 -0.35 60.85169407949285 86.9626926615824 119.34058451090016 0 0 0
157 53 1 0.7 131.33917009892835 97.43185268874831 117.14813979302912 0 0 0
158 53 2 -0.35 130.29949873750854 97.35400799627213 116.63958924087451 0 0 0
159 53 2 -0.35 132.37884146034816 97.50969738122448 117.65669034518372 0 0 0
160 54 1 0.7 112.78550144042144 42.92270916324235 130.97290661417549 0 0 0
161 54 2 -0.35 112.06529116522665 43.79217755881691 131.23921821475057 0 0 0
162 54 2 -0.35 113.50571171561623 42.053240767667795 130.7065950136004 0 0 0
163 55 1 0.7 57.64146444743567 89.0929680513651 77.51403929317092 0 0 0
164 55 2 -0.35 56.81822068589203 88.92604627087988 78.314043560834 0 0 0
165 55 2 -0.35 58.46470820897932 89.25988983185033 76.71403502550785 0 0 0
166 56 1 0.7 70.4584003237348 53.33424101086996 116.58866969150894 0 0 0
167 56 2 -0.35 69.31934433816967 53.2793626347488 116.37620834071178 0 0 0
168 56 2 -0.35 71.59745630929994 53.38911938699112 116.8011310423061 0 0 0
169 57 1 0.7 22.771505190884465 53.68774319518718 80.89988151094872 0 0 0
170 57 2 -0.35 21.66316311589968 53.755498685712645 80.56434159034005 0 0 0
171 57 2 -0.35 23.87984726586925 53.61998770466172 81.23542143155738 0 0 0
172 58 1 0.7 125.3085545149206 71.87573227047722 105.43226991055174 0 0 0
173 58 2 -0.35 125.68160230691102 70.86707761461982 105.8670700141721 0 0 0
174 58 2 -0.35 124.93550672293019 72.88438692633461 104.99746980693138 0 0 0
175 59 1 0.7 28.160386642981504 135.61830859008165 14.912473502528142 0 0 0
176 59 2 -0.35 27.904349585760638 134.56154414996877 14.508377049385388 0 0 0
177 59 2 -0.35 28.41642370020237 136.67507303019454 15.316569955670897 0 0 0
178 60 1 0.7 16.942156990497445 74.83253929057743 38.48785673477122 0 0 0
179 60 2 -0.35 15.922349262737457 74.56727159545241 38.002856478767086 0 0 0
180 60 2 -0.35 17.96196471825743 75.09780698570245 38.972856990775355 0 0 0
181 61 1 0.7 98.4081412998066 123.6308258495437 91.29005328113682 0 0 0
182 61 2 -0.35 97.33776589350693 123.92551471063398 91.62628975259422 0 0 0
183 61 2 -0.35 99.47851670610628 123.33613698845342 90.95381680967942 0 0 0
184 62 1 0.7 29.925496066420102 55.81238832269441 66.81053952491402 0 0 0
185 62 2 -0.35 30.48954886192286 56.62349944012342 67.41844017392552 0 0 0
186 62 2 -0.35 29.361443270917345 55.0012772052654 66.20263887590252 0 0 0
187 63 1 0.7 42.73779522987911 81.12442857824472 7.271114559039062 0 0 0
188 63 2 -0.35 41.67392643261399 81.54961798848751 7.089463388872015 0 0 0
189 63 2 -0.35 43.801664027144234 80.69923916800192 7.452765729206109 0 0 0
190 64 1 0.7 24.62239376950189 25.57208401829567 2.016095495324626 0 0 0
191 64 2 -0.35 24.662641099173953 26.479223431314168 1.294238003985288 0 0 0
192 64 2 -0.35 24.582146439829828 24.66494460527717 2.7379529866639642 0 0 0
193 65 1 0.7 107.51698992099473 38.049602158390734 99.6634760730264 0 0 0
194 65 2 -0.35 107.78699817327667 37.43579583571499 100.61001574041649 0 0 0
195 65 2 -0.35 107.24698166871279 38.663408481066476 98.71693640563632 0 0 0
196 66 1 0.7 94.04235935492551 0.9336782330338277 124.33006259954072 0 0 0
197 66 2 -0.35 93.29955195235428 1.1605057925652538 123.46844411034589 0 0 0
198 66 2 -0.35 94.78516675749674 0.7068506735024016 125.19168108873556 0 0 0
199 67 1 0.7 28.362110480834783 50.99085139017126 68.23931460838733 0 0 0
200 67 2 -0.35 27.965884979524194 49.999506549911835 67.78561783762277 0 0 0
201 67 2 -0.35 28.758335982145372 51.98219623043068 68.6930113791519 0 0 0
202 68 1 0.7 9.160623165853611 89.59354850165246 11.769667272814393 0 0 0
203 68 2 -0.35 8.505925207201795 90.25925153150398 11.081328650489837 0 0 0
204 68 2 -0.35 9.815321124505427 88.92784547180095 12.45800589513895 0 0 0
205 69 1 0.7 15.797854191529497 24.5353970362504 92.41798826047126 0 0 0
206 69 2 -0.35 14.69548542243139 24.591607187307158 92.77467231651428 0 0 0
207 69 2 -0.35 16.900222960627605 24.479186885193645 92.06130420442824 0 0 0
208 70 1 0.7 83.12869374040919 54.955695057267185 124.36682748951335 0 0 0
209 70 2 -0.35 82.01492337156407 55.03381136296689 124.05216352864967 0 0 0
210 70 2 -0.35 84.24246410925431 54.87757875156748 124.68149145037704 0 0 0
211 71 1 0.7 90.26961625100562 115.44033065132813 43.637256871739986 0 0 0
212 71 2 -0.35 91.31293742158807 115.00125465884848 43.89081792522113 0 0 0
213 71 2 -0.35 89.22629508042316 115.87940664380777 43.38369581825884 0 0 0
214 72 1 0.7 47.37624333397311 60.52171408595597 125.44864266200393 0 0 0
215 72 2 -0.35 46.21899886506538 60.539996912079374 125.52643069097635 0 0 0
216 72 2 -0.35 48.533487802880835 60.50343125983257 125.37085463303151 0 0 0
217 73 1 0.7 63.337220300146015 46.66158455408252 3.2516004649231216 0 0 0
218 73 2 -0.35 63.285333159613536 47.755559326631676 3.6338659769345947 0 0 0
219 73 2 -0.35 63.389107440678494 45.56760978153337 2.8693349529116485 0 0 0
220 74 1 0.7 22.649013962898874 79.97767444140169 54.77433663828966 0 0 0
221 74 2 -0.35 21.49966321770354 80.07328965446425 54.65003621371303 0 0 0
222 74 2 -0.35 23.79836470809421 79.88205922833913 54.89863706286629 0 0 0
223 75 1 0.7 134.27587973432423 109.71069478742345 72.64729222592305 0 0 0
224 75 2 -0.35 133.7385898654593 109.01837088061858 71.8872874858842 0 0 0
225 75 2 -0.35 134.81316960318918 110.40301869422832 73.4072969659619 0 0 0
226 76 1 0.7 7.040441088862923 39.693380519139296 65.64638517407998 0 0 0
227 76 2 -0.35 7.997855320788657 40.02204988873223 66.21289592772676 0 0 0
228 76 2 -0.35 6.083026856937188 39.364711149546366 65.0798744204332 0 0 0
229 77 1 0.7 75.79562076218221 100.99814999662253 7.906993234952442 0 0 0
230 77 2 -0.35 74.9760902435396 101.60365721837618 7.352619053178486 0 0 0
231 77 2 -0.35 76.61515128082482 100.39264277486888 8.461367416726398 0 0 0
232 78 1 0.7 8.835299845708208 42.884506817853314 44.90608766065263 0 0 0
233 78 2 -0.35 8.971252434254382 42.377248402324305 43.87177349486808 0 0 0
234 78 2 -0.35 8.699347257162035 43.39176523338232 45.94040182643718 0 0 0
235 79 1 0.7 105.61531258868766 46.55867807360304 80.70238304636551 0 0 0
236 79 2 -0.35 104.70237549959947 45.934860999182945 80.3516721554181 0 0 0
237 79 2 -0.35 106.52824967777585 47.182495148023136 81.05309393731292 0 0 0
238 80 1 0.7 2.9518602653182393 127.91547920364675 101.45897569109637 0 0 0
239 80 2 -0.35 3.886969614249262 127.32236477269655 101.80449816119116 0 0 0
240 80 2 -0.35 2.016750916387217 128.50859363459696 101.11345322100158 0 0 0
241 81 1 0.7 108.00444025686218 29.62739708257252 49.66276679637971 0 0 0
242 81 2 -0.35 107.26043652954132 30.46318440229421 49.968573941366714 0 0 0
243 81 2 -0.35 108.74844398418304 28.791609762850833 49.3569596513927 0 0 0
244 82 1 0.7 126.1215467537388 113.83629008794031 50.5275080127304 0 0 0
245 82 2 -0.35 126.39694560154055 112.79659238760439 50.96200101215119 0 0 0
246 82 2 -0.35 125.84614790593704 114.87598778827623 50.09301501330961 0 0 0
247 83 1 0.7 64.82716995981856 68.24551467050124 113.36506711429222 0 0 0
248 83 2 -0.35 63.94389229810132 68.29413858827691 112.61469634798301 0 0 0
249 83 2 -0.35 65.7104476215358 68.19689075272557 114.11543788060142 0 0 0
250 84 1 0.7 53.682989909166 1.0114033529588038 40.65615317861371 0 0 0
251 84 2 -0.35 54.83409631939818 0.868068072911399 40.6531482133692 0 0 0
252 84 2 -0.35 52.531883498933816 1.1547386330062086 40.659158143858214 0 0 0
253 85 1 0.7 122.96647296052728 45.51104758191437 126.17670923479679 0 0 0
254 85 2 -0.35 123.87245057544672 44.83094777667891 125.92717203078988 0 0 0
255 85 2 -0.35 122.06049534560785 46.191147387149826 126.4262464388037 0 0 0
256 86 1 0.7 67.95210922972863 47.099824049090884 1.742793070498292 0 0 0
257 86 2 -0.35 67.31675857407728 47.414964308721224 2.6607343328476434 0 0 0
258 86 2 -0.35 68.58745988537999 46.784683789460544 0.8248518081489404 0 0 0
259 87 1 0.7 101.12313586479199 23.544479558963552 118.06794750041698 0 0 0
260 87 2 -0.35 100.80970043391883 23.03544073023547 119.06204895475678 0 0 0
261 87 2 -0.35 101.43657129566515 24.053518387691632 117.07384604607718 0 0 0
262 88 1 0.7 3.993639508259315 123.09921531430409 52.511787508852684 0 0 0
263 88 2 -0.35 3.9982902347578535 122.84035828377283 51.3810481894304 0 0 0
264 88 2 -0.35 3.9889887817607765 123.35807234483535 53.64252682827497 0 0 0
265 89 1 0.7 54.612661287008166 57.99825074616738 108.60029083518324 0 0 0
266 89 2 -0.35 53.83656662690276 58.49091556629375 107.89278927789469 0 0 0
267 89 2 -0.35 55.38875594711357 57.50558592604101 109.3077923924718 0 0 0
268 90 1 0.7 36.08806692487005 75.14080629085227 76.53133035429349 0 0 0
269 90 2 -0.35 36.84220479911067 74.36505158975882 76.94975682378035 0 0 0
270 90 2 -0.35 35.33392905062943 75.91656099194572 76.11290388480663 0 0 0
271 91 1 0.7 95.0692646107959 24.13031364657465 95.18145798015476 0 0 0
272 91 2 -0.35 94.06324661717964 23.93182126377517 94.63912176479485 0 0 0
273 91 2 -0.35 96.07528260441215 24.328806029374128 95.72379419551467 0 0 0
274 92 1 0.7 102.76427246106987 84.12725320138375 18.744555656679236 0 0 0
275 92 2 -0.35 101.87829276986781 83.83475579144157 19.433819939777255 0 0 0
276 92 2 -0.35 103.65025215227192 84.41975061132594 18.055291373581216 0 0 0
277 93 1 0.7 65.74692180787535 97.51482496108619 121.66312097556103 0 0 0
278 93 2 -0.35 64.58792578531649 97.46763664519708 121.67319482965398 0 0 0
279 93 2 -0.35 66.90591783043422 97.5620132769753 121.65304712146808 0 0 0
280 94 1 0.7 102.07423625424236 23.688725051325154 40.4019376218328 0 0 0
281 94 2 -0.35 102.16369131251452 23.02642780359083 41.350072711465636 0 0 0
282 94 2 -0.35 101.98478119597021 24.351022299059476 39.453802532199965 0 0 0
283 95 1 0.7 20.36561014380567 66.8096869419374 28.408433141842686 0 0 0
284 95 2 -0.35 19.214718373989346 66.67099315710914 28.451002711009597 0 0 0
285 95 2 -0.35 21.516501913621997 66.94838072676566 28.365863572675774 0 0 0
286 96 1 0.7 134.5358149500265 30.441865095143143 116.42665407081445 0 0 0
287 96 2 -0.35 133.91763416979478 30.776991014141338 117.3492282636942 0 0 0
288 96 2 -0.35 135.1539957302582 30.10673917614495 115.5040798779347 0 0 0
289 97 1 0.7 79.77496817837236 122.89017390408095 14.152805888630825 0 0 0
290 97 2 -0.35 79.76697052988185 123.35164159047333 13.088576772305643 0 0 0
291 97 2 -0.35 79.78296582686288 122.42870621768857 15.217035004956006 0 0 0
292 98 1 0.7 37.2085702182765 3.4396585731020473 125.34163812610397 0 0 0
293 98 2 -0.35 36.917119810217514 2.855901632824644 126.30074421737866 0 0 0
294 98 2 -0.35 37.500020626335484 4.023415513379451 124.38253203482928 0 0 0
295 99 1 0.7 71.91198542942851 19.73911240498494 101.26219058188711 0 0 0
296 99 2 -0.35 70.8146838118503 19.463460604272502 101.00617252622654 0 0 0
297 99 2 -0.35 73.00928704700672 20.01476420569738 101.51820863754769 0 0 0
298 100 1 0.7 136.63710977678983 40.904018506828706 118.83904427003071 0 0 0
299 100 2 -0.35 136.36951925710864 42.0208920277275 118.67598338541433 0 0 0
300 100 2 -0.35 136.90470029647102 39.78714498592991 119.0021051546471 0 0 0
301 101 1 0.7 36.817046406128 95.09894779329139 106.01556184842045 0 0 0
302 101 2 -0.35 35.94591030303558 95.00357982044756 105.25554419096464 0 0 0
303 101 2 -0.35 37.68818250922042 95.19431576613522 106.77557950587625 0 0 0
304 102 1 0.7 101.54798640243149 75.00746566616347 59.47545120933813 0 0 0
305 102 2 -0.35 102.64330683325836 75.38931469213975 59.46742156587088 0 0 0
306 102 2 -0.35 100.45266597160462 74.62561664018719 59.483480852805386 0 0 0
307 103 1 0.7 54.90847534588933 25.745138361931378 130.5404489806576 0 0 0
308 103 2 -0.35 53.88237216652608 25.205459842038 130.50224740390573 0 0 0
309 103 2 -0.35 55.934578525252576 26.284816881824757 130.57865055740947 0 0 0
310 104 1 0.7 17.326017912163408 132.38304973038987 127.91681866250785 0 0 0
311 104 2 -0.35 16.166423054109814 132.40488984582603 127.89530646751521 0 0 0
312 104 2 -0.35 18.485612770217003 132.3612096149537 127.93833085750049 0 0 0
313 105 1 0.7 123.97126076927933 113.97974927769032 98.64611014101938 0 0 0
314 105 2 -0.35 123.09131756984809 114.62580802919305 98.25379896939482 0 0 0
315 105 2 -0.35 124.85120396871056 113.33369052618758 99.03842131264393 0 0 0
316 106 1 0.7 92.17314011285694 137.96587678648805 133.4911505046725 0 0 0
317 106 2 -0.35 91.0431110393911 137.88730296830133 133.24122962075623 0 0 0
318 106 2 -0.35 93.30316918632278 138.04445060467478 133.74107138858878 0 0 0
319 107 1 0.7 125.76653203077919 124.10384130575873 118.26082588697822 0 0 0
320 107 2 -0.35 126.4655245439563 123.18636326545884 118.38429050575544 0 0 0
321 107 2 -0.35 125.06753951760207 125.02131934605863 118.137361268201 0 0 0
322 108 1 0.7 48.70068244296157 80.36981885524924 112.54550017395312 0 0 0
323 108 2 -0.35 49.8517352474924 80.4141454379006 112.68229416231576 0 0 0
324 108 2 -0.35 47.549629638430744 80.32549227259787 112.40870618559048 0 0 0
325 109 1 0.7 40.2214236302401 44.466953445443394 92.0865575671599 0 0 0
326 109 2 -0.35 39.0735159696233 44.568150911541345 91.95364001544975 0 0 0
327 109 2 -0.35 41.369331290856906 44.365755979345444 92.21947511887005 0 0 0
328 110 1 0.7 72.77303125652159 35.336328358546055 89.67072208350092 0 0 0
329 110 2 -0.35 73.54427403409426 36.1015447586425 90.07720509552658 0 0 0
330 110 2 -0.35 72.00178847894892 34.57111195844961 89.26423907147526 0 0 0
331 111 1 0.7 57.826057400007755 133.54672193040452 86.7554843089336 0 0 0
332 111 2 -0.35 56.98720563321749 133.83947999233342 87.50128617976021 0 0 0
333 111 2 -0.35 58.66490916679802 133.2539638684756 86.00968243810699 0 0 0
334 112 1 0.7 128.42478024699946 43.28161132022814 47.04145907426321 0 0 0
335 112 2 -0.35 127.54954998748258 42.56679087586381 47.30338220257527 0 0 0
336 112 2 -0.35 129.30001050651634 43.996431764592465 46.779535945951146 0 0 0
337 113 1 0.7 132.80266114175444 91.3258094668043 74.8797085796854 0 0 0
338 113 2 -0.35 131.81050997080894 91.90257138125949 75.048769953232 0 0 0
339 113 2 -0.35 133.79481231269995 90.74904755234911 74.7106472061388 0 0 0
340 114 1 0.7 136.26209877257332 132.09407063997074 136.04524598831554 0 0 0
341 114 2 -0.35 135.1794412032528 131.83170136397058 135.721803643215 0 0 0
342 114 2 -0.35 137.34475634189386 132.3564399159709 136.3686883334161 0 0 0
343 115 1 0.7 101.44932561947466 84.81568651079 52.243186847420034 0 0 0
344 115 2 -0.35 102.3629505004938 84.95003295671602 51.54116077294002 0 0 0
345 115 2 -0.35 100.53570073845553 84.68134006486399 52.94521292190005 0 0 0
346 116 1 0.7 127.24134458845543 30.278498170561388 11.718752625267372 0 0 0
347 116 2 -0.35 127.4704238509639 29.20346582479287 11.348039600084798 0 0 0
348 116 2 -0.35 127.01226532594697 31.353530516329908 12.089465650449947 0 0 0
349 117 1 0.7 133.0753728687183 87.791804548256 31.85904253872998 0 0 0
350 117 2 -0.35 133.26589683086115 87.68012238315991 30.720259102843755 0 0 0
351 117 2 -0.35 132.88484890657543 87.90348671335208 32.997825974616205 0 0 0
352 118 1 0.7 26.92794843480361 133.0293437442879 9.180310246618609 0 0 0
353 118 2 -0.35 25.773356597902303 133.10213614354532 9.265274690777428 0 0 0
354 118 2 -0.35 28.082540271704918 132.95655134503048 9.09534580245979 0 0 0
355 119 1 0.7 3.4743149189624543 12.810843001963033 0.8383339926778963 0 0 0
356 119 2 -0.35 4.471410642749574 13.237459299060943 1.2499146684340685 0 0 0
357 119 2 -0.35 2.477219195175335 12.384226704865123 0.426753316921724 0 0 0
358 120 1 0.7 50.87941493740278 2.326852928533616 48.417169864483725 0 0 0
359 120 2 -0.35 50.2273615516985 1.4424310182621554 48.78895510736376 0 0 0
360 120 2 -0.35 51.531468323107056 3.2112748388050765 48.04538462160369 0 0 0
361 121 1 0.7 41.37391237792276 93.34533574774179 101.05791229617684 0 0 0
362 121 2 -0.35 40.3285729543509 92.86455247133229 101.20526537775785 0 0 0
363 121 2 -0.35 42.41925180149461 93.82611902415128 100.91055921459582 0 0 0
364 122 1 0.7 39.33196184427103 107.2827166632203 131.61895874357734 0 0 0
365 122 2 -0.35 38.37881854024348 106.69247445221555 131.3210796165213 0 0 0
366 122 2 -0.35 40.28510514829858 107.87295887422505 131.91683787063337 0 0 0
367 123 1 0.7 73.83960330432262 30.212735750345857 18.44975606279902 0 0 0
368 123 2 -0.35 73.83061142864682 30.747117297915395 17.420214656254814 0 0 0
369 123 2 -0.35 73.84859517999843 29.67835420277632 19.479297469343223 0 0 0
370 124 1 0.7 115.05014746312524 18.828412745999366 85.13302201131965 0 0 0
371 124 2 -0.35 113.89806993514928 18.92555265187777 85.22726217377036 0 0 0
372 124 2 -0.35 116.2022249911012 18.731272840120962 85.03878184886895 0 0 0
373 125 1 0.7 103.70094424937895 119.76999931212981 115.37843896559367 0 0 0
374 125 2 -0.35 102.82197475254073 120.14969180905993 114.72357544439026 0 0 0
375 125 2 -0.35 104.57991374621717 119.3903068151997 116.03330248679708 0 0 0
376 126 1 0.7 115.42369473279626 42.03737410671887 124.14661162399995 0 0 0
377 126 2 -0.35 114.77956209585523 41.14181806779517 124.50532115436492 0 0 0
378 126 2 -0.35 116.0678273697373 42.93293014564257 123.78790209363497 0 0 0
379 127 1 0.7 3.101564567117749 2.9956795480082183 30.386163374123242 0 0 0
380 127 2 -0.35 2.7511024367866046 3.9454633293644563 30.95245575785836 0 0 0
381 127 2 -0.35 3.4520266974488933 2.0458957666519804 29.819870990388125 0 0 0
382 128 1 0.7 14.247828889287929 105.26014226221486 54.21100104516885 0 0 0
383 128 2 -0.35 13.339390095671508 104.73612687325057 53.7152724597702 0 0 0
384 128 2 -0.35 15.15626768290435 105.78415765117914 54.7067296305675 0 0 0
385 129 1 0.7 118.29456615275451 59.7733293449382 57.34630037627476 0 0 0
386 129 2 -0.35 117.23406219279767 60.238135928111625 57.41620167207445 0 0 0
387 129 2 -0.35 119.35507011271136 59.30852276176477 57.27639908047507 0 0 0
388 130 1 0.7 132.27042404993924 42.01700732857781 59.84217140723121 0 0 0
389 130 2 -0.35 131.2005847224485 41.79081185364748 59.45502877140403 0 0 0
390 130 2 -0.35 133.34026337742998 42.24320280350814 60.229314043058395 0 0 0
391 131 1 0.7 102.37484133493845 71.95831631075512 103.4222348613768 0 0 0
392 131 2 -0.35 101.64481370972086 71.16896201162005 103.85764209243314 0 0 0