LAMMPS data file via write_data, version 29 Aug 2024, timestep = 4000000, units = real

1500 atoms
2 atom types
1000 bonds
1 bond types
500 angles
1 angle types

0 139 xlo xhi
0 139 ylo yhi
0 139 zlo zhi

Masses

1 12.0107
2 15.9994

PairIJ Coeffs # lj/cut/coul/long/gpu

1 1 0.053649 2.8 12
1 2 0.0917684 2.925 12
2 2 0.156973 3.05 12

Bond Coeffs # harmonic

1 0 1.16

Angle Coeffs # harmonic

1 0 180

Atoms # full

1236 412 2 -0.35 8.810218286059447 5.155353175825058 2.0547630144665896 0 0 3
1234 412 1 0.7 9.882557323087486 4.937854908783013 1.6695572337474247 0 0 3
1235 412 2 -0.35 10.954896360115523 4.720356641740967 1.2843514530282598 0 0 3
1153 385 1 0.7 0.12589291886220694 4.844981214214251 6.145476455036486 3 -1 -2
1154 385 2 -0.35 0.7388133494017153 4.149675490616373 6.842956559811622 3 -1 -2
930 310 2 -0.35 11.869615941973027 16.311275849591517 23.36222570874144 -4 0 1
483 161 2 -0.35 42.59952798518286 7.961309197586056 10.162538999717693 6 -7 0
481 161 1 0.7 42.90204703039013 9.063942493950604 9.966881030208876 6 -7 0
482 161 2 -0.35 43.204566075597405 10.16657579031515 9.771223060700057 6 -7 0
467 156 2 -0.35 63.07487591918011 11.319484967863945 13.180714162640736 -1 -3 -10
1124 375 2 -0.35 52.26930898485432 14.805638305303841 4.307060312603977 7 2 3
1123 375 1 0.7 51.92384445275503 13.821324013777941 4.814386275431752 7 2 3
466 156 1 0.7 63.80690465524524 11.88738928694916 13.878724630999637 -1 -3 -10
468 156 2 -0.35 64.53893339131038 12.455293606034376 14.576735099358537 -1 -3 -10
1125 375 2 -0.35 51.578379920655735 12.837009722252041 5.3217122382595266 7 2 3
129 43 2 -0.35 69.56092107557362 13.572581319590126 14.241361186760567 3 2 -3
127 43 1 0.7 70.49364003886097 14.000462324798384 14.782243041608723 3 2 -3
128 43 2 -0.35 71.42635900214835 14.428343330006646 15.323124896456878 3 2 -3
1067 356 2 -0.35 76.92029447686988 17.403872502675256 13.931583705717484 0 -3 -7
1068 356 2 -0.35 75.53201493621607 18.660693905056288 12.562102095941817 0 -3 -7
1066 356 1 0.7 76.22615470654297 18.03228320386577 13.24684290082965 0 -3 -7
628 210 1 0.7 91.22706080387843 12.132463848886166 7.034227245549118 9 -1 2
630 210 2 -0.35 91.8386072571769 12.484648046769115 7.954866820095134 9 -1 2
629 210 2 -0.35 90.61551435057996 11.780279651003218 6.113587671003103 9 -1 2
54 18 2 -0.35 71.39401718229448 11.490138353360619 15.274385141339282 -4 7 7
52 18 1 0.7 71.88776792676008 10.511818286836785 14.893990543879136 -4 7 7
53 18 2 -0.35 72.38151867122568 9.533498220312953 14.513595946418992 -4 7 7
192 64 2 -0.35 74.60001148663623 12.79020601247029 13.038450379941896 -8 6 2
191 64 2 -0.35 76.13575833091808 13.014120081937332 14.7629051110878 -8 6 2
190 64 1 0.7 75.36788490877716 12.90216304720381 13.900677745514848 -8 6 2
1359 453 2 -0.35 91.80249565355498 15.34543956500298 19.906108497410436 4 5 -7
1358 453 2 -0.35 90.71533374346882 17.33131040497356 19.399358077378277 4 5 -7
1357 453 1 0.7 91.2589146985119 16.33837498498827 19.652733287394355 4 5 -7
782 261 2 -0.35 85.95303895991816 12.508187558590627 21.58066617690215 -2 -1 7
783 261 2 -0.35 85.68713456241719 10.43407909168113 20.57579358851976 -2 -1 7
781 261 1 0.7 85.82008676116767 11.47113332513588 21.078229882710954 -2 -1 7
123 41 2 -0.35 92.56383275320842 18.870524477069992 0.8769443743383731 3 -2 7
1155 385 2 -0.35 138.5129724883227 5.540286937812129 5.4479963502613495 2 -1 -2
345 115 2 -0.35 118.18146559927094 13.695817948690058 14.675510524841517 -2 2 -9
344 115 2 -0.35 116.15369982615394 12.71827949354928 15.236745358129998 -2 2 -9
343 115 1 0.7 117.16758271271244 13.20704872111967 14.956127941485757 -2 2 -9
56 19 2 -0.35 132.5205195663821 11.12439996198899 10.311850833796214 -5 5 -3
55 19 1 0.7 132.22137841407576 11.539877183846425 9.270941015841775 -5 5 -3
57 19 2 -0.35 131.92223726176942 11.95535440570386 8.230031197887339 -5 5 -3
386 129 2 -0.35 6.158408225283108 43.602142638980474 11.622524076095 -5 10 -2
385 129 1 0.7 6.332136696145262 42.59707554068821 12.175026154228565 -5 10 -2
387 129 2 -0.35 6.505865167007414 41.59200844239594 12.727528232362129 -5 10 -2
1202 401 2 -0.35 11.798768388629266 29.402046548535164 17.467608089211097 2 -4 -3
1201 401 1 0.7 11.244126142483147 28.65432280732966 16.77559567196103 2 -4 -3
1203 401 2 -0.35 10.689483896337027 27.906599066124155 16.083583254710966 2 -4 -3
368 123 2 -0.35 2.2429792637567996 28.018743832043373 14.470565010554289 3 -1 -4
367 123 1 0.7 1.184741655733795 27.672127371193916 14.145618562605913 3 -1 -4
1476 492 2 -0.35 37.39207746482286 24.42481930435642 8.509249137815397 4 2 1
1131 377 2 -0.35 24.121246654716835 46.755197816974785 6.993751203280131 0 -5 2
849 283 2 -0.35 32.784997143962556 29.20108167737492 3.0913278390074055 0 2 -5
847 283 1 0.7 33.36439728268311 30.180777986295013 3.3151371809457255 0 2 -5
848 283 2 -0.35 33.94379742140366 31.160474295215106 3.5389465228840455 0 2 -5
1475 492 2 -0.35 35.99037613659384 22.782868815483127 7.6597598921331995 4 2 1
1037 346 2 -0.35 36.56990885135551 33.49688084419361 4.41269029531768 -3 0 4
1474 492 1 0.7 36.69122680070835 23.603844059919773 8.084504514974299 4 2 1
1036 346 1 0.7 36.23416251732978 33.5429096933899 5.522084609449292 -3 0 4
1491 497 2 -0.35 23.269870591060858 42.18446487242997 7.2215927258472155 -1 3 -3
1489 497 1 0.7 23.937801021416675 42.93699426747047 6.644385267643814 -1 3 -3
1490 497 2 -0.35 24.605731451772492 43.689523662510965 6.067177809440413 -1 3 -3
1038 346 2 -0.35 35.89841618330404 33.5889385425862 6.631478923580905 -3 0 4
706 236 1 0.7 28.90213494593221 33.247133574201506 20.69029404558182 0 4 -2
708 236 2 -0.35 29.788863950877367 32.71394435131668 20.165869671255752 0 4 -2
707 236 2 -0.35 28.015405940987055 33.780322797086335 21.214718419907886 0 4 -2
668 223 2 -0.35 55.45707460342588 47.04697557632663 19.513399720233025 -2 0 3
186 62 2 -0.35 64.57098643325925 31.96340039299957 15.88239680906469 -4 -2 0
184 62 1 0.7 63.84136056849816 31.062468408971394 15.921990465475814 -4 -2 0
185 62 2 -0.35 63.11173470373707 30.16153642494322 15.961584121886935 -4 -2 0
1413 471 2 -0.35 62.41116016136949 32.22487422573799 23.371861478882348 0 -9 0
1411 471 1 0.7 62.12083316931635 33.11505564608061 22.687108036712868 0 -9 0
420 140 2 -0.35 75.03620684809187 43.64972677908614 19.398942734953184 -2 -3 -4
418 140 1 0.7 74.2308569809321 44.42976812575298 19.1013741059714 -2 -3 -4
419 140 2 -0.35 73.42550711377234 45.20980947241982 18.80380547698961 -2 -3 -4
555 185 2 -0.35 75.57617329034238 40.66491319829542 17.243720440407188 -1 1 11
553 185 1 0.7 76.61967735143739 41.1565681926614 17.121349524774345 -1 1 11
554 185 2 -0.35 77.6631814125324 41.64822318702739 16.998978609141503 -1 1 11
525 175 2 -0.35 87.86778145486811 23.196123556954124 11.002410474953493 -6 3 4
523 175 1 0.7 87.00342985075554 23.618641911419125 11.650464905236952 -6 3 4
524 175 2 -0.35 86.13907824664297 24.041160265884127 12.29851933552041 -6 3 4
86 29 2 -0.35 99.90994517964623 43.028279185979194 8.442785800071167 4 0 -1
972 324 2 -0.35 112.97773279521408 29.78712932046427 2.2658760378553495 0 0 0
970 324 1 0.7 112.59930977274702 30.465070943643795 1.404022702521855 0 0 0
85 29 1 0.7 98.94466150738648 42.53169480430011 8.851725140246186 4 0 -1
87 29 2 -0.35 97.97937783512675 42.035110422621024 9.260664480421203 4 0 -1
613 205 1 0.7 106.96275453159164 23.308086682978765 0.9121901964341309 -8 2 3
614 205 2 -0.35 107.0302677929035 22.682189844881226 1.8865079616468465 -8 2 3
632 211 2 -0.35 105.63141990341256 37.329468107794106 17.472979733851343 -1 8 1
631 211 1 0.7 106.07048385521462 36.90210398217681 16.488001180601163 -1 8 1
633 211 2 -0.35 106.50954780701666 36.47473985655952 15.503022627350987 -1 8 1
971 324 2 -0.35 112.22088675027996 31.14301256682332 0.5421693671883603 0 0 0
369 123 2 -0.35 0.1265040477107906 27.32551091034446 13.820672114657535 3 -1 -4
1391 464 2 -0.35 8.171835129585235 64.6271850973945 10.324160956204052 5 -1 -5
1390 464 1 0.7 7.625098252486299 65.23578341457105 9.501794325345768 5 -1 -5
1392 464 2 -0.35 7.078361375387362 65.84438173174759 8.679427694487485 5 -1 -5
1129 377 1 0.7 24.22209730776944 47.90484707837964 7.110950697860569 0 -5 2
1130 377 2 -0.35 24.322947960822045 49.054496339784485 7.228150192441008 0 -5 2
864 288 2 -0.35 32.711936778418135 64.48546329116377 10.031555239666929 -3 1 8
863 288 2 -0.35 34.75862192392286 63.46089283073151 9.652430871176964 -3 1 8
862 288 1 0.7 33.7352793511705 63.97317806094764 9.841993055421947 -3 1 8
429 143 2 -0.35 38.139603837808004 58.04324066469202 15.08050491972635 9 -6 0
427 143 1 0.7 38.446949972330906 56.92932169104648 15.18210646374557 9 -6 0
428 143 2 -0.35 38.7542961068538 55.815402717400936 15.283708007764789 9 -6 0
1059 353 2 -0.35 46.14509855865494 61.77715150058838 17.07799134876417 -1 5 -3
1057 353 1 0.7 45.22418927522027 61.70786784851237 17.779935696443097 -1 5 -3
1058 353 2 -0.35 44.3032799917856 61.63858419643636 18.481880044122025 -1 5 -3
880 294 1 0.7 35.12165158303503 69.31510670439326 4.0506718739772225 1 0 0
881 294 2 -0.35 36.251119487653895 69.11949397381602 4.22854236638845 1 0 0
183 61 2 -0.35 25.004252654944718 54.39914842275019 4.095322409025233 6 -1 0
181 61 1 0.7 26.13355099904778 54.638216186983755 3.9807281067600755 6 -1 0
182 61 2 -0.35 27.262849343150847 54.877283951217315 3.8661338044949187 6 -1 0
667 223 1 0.7 55.9630472706042 48.089358954484084 19.458367429636098 -2 0 3
669 223 2 -0.35 56.46901993778251 49.13174233264153 19.403335139039175 -2 0 3
1426 476 1 0.7 59.441006663504254 62.12218671626523 17.738932996126515 6 7 -2
1428 476 2 -0.35 59.72767897633782 61.09466581367839 17.283279860722928 6 7 -2
1427 476 2 -0.35 59.15433435067069 63.14970761885208 18.1945861315301 6 7 -2
489 163 2 -0.35 71.6450071703046 60.32955628831781 13.163239605674587 0 3 -7
487 163 1 0.7 70.78303360349562 61.08963555008399 13.005502210119596 0 3 -7
488 163 2 -0.35 69.92106003668664 61.84971481185017 12.847764814564604 0 3 -7
1471 491 1 0.7 92.95412333323686 61.81449119948342 14.295504910829479 2 2 2
1473 491 2 -0.35 92.10106126957245 61.78968954945403 13.509839591694247 2 2 2
627 209 2 -0.35 79.74621491069279 56.851771756989585 15.144587252806046 -1 -7 -1
625 209 1 0.7 80.26983147874083 57.32522496887023 16.065058732986998 -1 -7 -1
626 209 2 -0.35 80.79344804678887 57.79867818075088 16.98553021316795 -1 -7 -1
1472 491 2 -0.35 93.80718539690127 61.83929284951281 15.08117022996471 2 2 2
546 182 2 -0.35 111.80082804776445 67.34331146151462 4.847376563003557 3 3 1
545 182 2 -0.35 111.2611399075672 66.93815140235651 2.627695946834723 3 3 1
544 182 1 0.7 111.53098397766583 67.14073143193556 3.7375362549191404 3 3 1
81 27 2 -0.35 103.34555414878008 51.485111431658474 19.74303702626341 8 -5 6
79 27 1 0.7 104.43149142755372 51.31529694375329 19.37222269770297 8 -5 6
80 27 2 -0.35 105.51742870632737 51.145482455848104 19.001408369142528 8 -5 6
135 45 2 -0.35 134.46924424784822 62.35854737211169 1.3992167538266038 -4 -6 0
134 45 2 -0.35 132.98547546434446 61.75568047541008 3.077722548264149 -4 -6 0
133 45 1 0.7 133.72735985609634 62.05711392376088 2.238469651045376 -4 -6 0
299 100 2 -0.35 120.3920509093983 58.72133204398165 9.58620649941937 6 5 -1
300 100 2 -0.35 120.07926829539046 60.645694062233794 8.328670074865721 6 5 -1
298 100 1 0.7 120.23565960239438 59.683513053107724 8.957438287142546 6 5 -1
243 81 2 -0.35 11.482168046437653 88.01415269483238 11.710605366349855 4 -2 -2
241 81 1 0.7 12.43026498465358 87.96676381479476 12.377288566823514 4 -2 -2
242 81 2 -0.35 13.378361922869503 87.91937493475716 13.043971767297174 4 -2 -2
882 294 2 -0.35 33.992183678416175 69.51071943497048 3.8728013815659943 1 0 0
1224 408 2 -0.35 26.251657268563648 74.16534482789962 0.8549887418622485 -4 -3 -8
773 258 2 -0.35 52.750921082960346 91.6964382388421 11.726844834186958 4 12 -1
772 258 1 0.7 53.082657513099626 90.58652275780229 11.66652430810894 4 12 -1
774 258 2 -0.35 53.41439394323891 89.47660727676248 11.606203782030924 4 12 -1
658 220 1 0.7 92.74769049266595 89.96846752509853 2.8424588313859096 -2 -1 0
660 220 2 -0.35 91.94477589091993 90.50622905021267 2.200788601117986 -2 -1 0
682 228 1 0.7 93.18382487244783 89.97204013254401 22.643552409393305 6 -7 5
683 228 2 -0.35 93.7607538218072 89.32447242871926 23.413882894545885 6 -7 5
659 220 2 -0.35 93.55060509441198 89.4307059999844 3.4841290616538334 -2 -1 0
684 228 2 -0.35 92.60689592308846 90.61960783636876 21.873221924240724 6 -7 5
1006 336 1 0.7 116.70570660402723 78.50145684846956 14.649239283479139 -2 2 6
1008 336 2 -0.35 116.15122841089585 78.01410103196659 15.544023191169616 -2 2 6
1007 336 2 -0.35 117.26018479715862 78.98881266497251 13.75445537578866 -2 2 6
1121 374 2 -0.35 33.52213048984997 110.31864028641017 22.704949363107186 13 1 2
1120 374 1 0.7 33.23295605115814 110.65665764136118 21.63363129093681 13 1 2
1122 374 2 -0.35 32.94378161246631 110.99467499631217 20.56231321876643 13 1 2
485 162 2 -0.35 26.21464963534473 110.78239060419062 7.893208733631637 -1 2 3
484 162 1 0.7 25.49404352933131 110.47788281840788 7.036703130396834 -1 2 3
486 162 2 -0.35 24.77343742331789 110.17337503262513 6.180197527162031 -1 2 3
878 293 2 -0.35 23.86002260096679 115.984805544957 6.1449506681643555 1 4 -1
1462 488 1 0.7 47.448716879217706 114.76313691154331 12.713959440433797 -5 -3 -2
1463 488 2 -0.35 47.88893291260537 115.4408567179225 11.881790161988132 -5 -3 -2
1464 488 2 -0.35 47.00850084583004 114.08541710516413 13.546128718879462 -5 -3 -2
516 172 2 -0.35 68.6615763310727 101.74847738899217 4.827499982084525 2 2 4
62 21 2 -0.35 72.26781882486802 103.72801664370625 6.08217694437961 8 1 -3
61 21 1 0.7 72.33075184801741 103.39018762586974 7.1901078940803265 8 1 -3
63 21 2 -0.35 72.39368487116683 103.05235860803322 8.298038843781043 8 1 -3
515 172 2 -0.35 70.30211339814147 101.2444140526371 6.388575984241195 2 2 4
514 172 1 0.7 69.48184486460708 101.49644572081463 5.60803798316286 2 2 4
585 195 2 -0.35 82.02783429463429 107.91294992465907 19.790585372502665 -1 4 1
583 195 1 0.7 81.92427418273384 108.9705332437766 19.325404949065675 -1 4 1
584 195 2 -0.35 81.8207140708334 110.02811656289411 18.860224525628684 -1 4 1
1071 357 2 -0.35 83.7995192477068 96.03031309599949 18.977334608893496 0 -3 5
1069 357 1 0.7 84.4417001678163 96.99621566363453 18.961975712979584 0 -3 5
1070 357 2 -0.35 85.08388108792577 97.96211823126956 18.94661681706567 0 -3 5
1495 499 1 0.7 84.77672055031181 113.52985630183026 8.996063459372067 -1 1 -1
1497 499 2 -0.35 84.64201244260434 112.72131669095424 8.175260545535966 -1 1 -1
1496 499 2 -0.35 84.91142865801928 114.33839591270629 9.816866373208166 -1 1 -1
237 79 2 -0.35 87.25291303609961 113.97514314682225 5.687059583183285 0 0 4
235 79 1 0.7 86.77076786295036 115.00023015037986 5.9367246931725965 0 0 4
151 51 1 0.7 102.54334948123115 111.26909280336541 15.3691314800092 -1 1 -2
152 51 2 -0.35 102.3177322016136 112.2784687344113 15.894352455372166 -1 1 -2
153 51 2 -0.35 102.7689667608487 110.25971687231952 14.843910504646233 -1 1 -2
1292 431 2 -0.35 109.92517504576654 111.21795792776278 23.921602589406042 5 -4 -1
877 293 1 0.7 24.027769229451987 117.0083794012697 5.6255686995658465 1 4 -1
879 293 2 -0.35 24.19551585793718 118.0319532575824 5.1061867309673366 1 4 -1
288 96 2 -0.35 35.25812961836223 126.36102818628592 21.93172123779523 -1 -4 0
286 96 1 0.7 34.719863495449545 125.81548370761179 21.060945260453064 -1 -4 0
287 96 2 -0.35 34.18159737253686 125.26993922893764 20.1901692831109 -1 -4 0
473 158 2 -0.35 51.037919193202214 134.03149073246422 5.698723206207567 -4 -5 -1
353 118 2 -0.35 69.9017110603825 123.08423391085124 11.457409990515687 4 -1 -5
472 158 1 0.7 51.554928955498504 133.71102438756182 4.7109974206387735 -4 -5 -1
474 158 2 -0.35 52.07193871779479 133.3905580426594 3.7232716350699806 -4 -5 -1
354 118 2 -0.35 72.01645653130996 123.91550120908958 10.989172580573262 4 -1 -5
352 118 1 0.7 70.95908379584623 123.49986755997041 11.223291285544475 4 -1 -5
493 165 1 0.7 73.55115603942855 121.33240523644669 138.6082540325401 0 -4 0
495 165 2 -0.35 73.23975235499746 122.09787895471936 0.4223042348961453 0 -4 1
34 12 1 0.7 78.7976899051799 126.62790278765259 15.400639235880492 -2 -2 5
35 12 2 -0.35 79.45775627055905 126.54950013429698 14.44997346010028 -2 -2 5
36 12 2 -0.35 78.13762353980074 126.70630544100821 16.351305011660703 -2 -2 5
236 79 2 -0.35 86.28862268980112 116.02531715393748 6.186389803161908 0 0 4
1050 350 2 -0.35 110.01398471256248 133.83250668733095 138.7501523440054 0 0 4
1048 350 1 0.7 110.57721612198769 134.84511102247353 138.80495051811764 0 0 4
1049 350 2 -0.35 111.14044753141289 135.8577153576161 138.85974869222989 0 0 4
618 206 2 -0.35 105.83368382152248 132.56969287050865 8.030075615174745 -1 -1 -2
616 206 1 0.7 106.28760042491713 132.54881197011645 9.097372998831995 -1 -1 -2
617 206 2 -0.35 106.74151702831176 132.52793106972422 10.164670382489247 -1 -1 -2
431 144 2 -0.35 96.37939993944748 132.79296797633734 20.10280757722496 3 -2 11
372 124 2 -0.35 104.39467129761056 124.13268922357483 9.866187563411579 -4 -3 1
370 124 1 0.7 104.51210862659292 123.93426815934613 8.72933332691921 -4 -3 1
371 124 2 -0.35 104.62954595557528 123.73584709511744 7.592479090426842 -4 -3 1
432 144 2 -0.35 95.99804626840663 130.79438952020138 18.988063870246688 3 -2 11
430 144 1 0.7 96.18872310392706 131.79367874826937 19.545435723735824 3 -2 11
1304 435 2 -0.35 110.224610311206 123.50020515496568 14.9596403046957 -5 -8 3
1303 435 1 0.7 110.25976692684792 122.37861856921982 14.665688704854063 -5 -8 3
1305 435 2 -0.35 110.29492354248983 121.25703198347396 14.371737105012425 -5 -8 3
605 202 2 -0.35 122.19643120870812 126.39122832805359 11.977764224447784 -1 4 -1
604 202 1 0.7 121.147865885285 126.47978813615183 11.489637270773036 -1 4 -1
606 202 2 -0.35 120.09930056186187 126.56834794425006 11.001510317098289 -1 4 -1
651 217 2 -0.35 126.04115021087465 122.63050512453644 5.707710841038771 -2 -7 -3
649 217 1 0.7 125.24357652485556 123.4222502778123 5.99514053267196 -2 -7 -3
650 217 2 -0.35 124.44600283883646 124.21399543108815 6.28257022430515 -2 -7 -3
318 106 2 -0.35 124.2282736402431 118.27032466236867 17.570769640936714 8 -6 3
316 106 1 0.7 124.44760491491195 117.41085732507156 18.31830538461173 8 -6 3
317 106 2 -0.35 124.66693618958078 116.55138998777446 19.065841128286745 8 -6 3
1458 486 2 -0.35 126.32124163732001 131.11862618675326 6.339119723880213 -2 1 5
1456 486 1 0.7 127.25640156384937 131.4959404562284 5.765787486983784 -2 1 5
1457 486 2 -0.35 128.19156149037872 131.8732547257035 5.192455250087356 -2 1 5
977 326 2 -0.35 0.27032249647339923 7.537911198271473 28.96857675466748 -8 1 3
976 326 1 0.7 138.5290627964701 6.8050337951985975 28.45963199419229 -9 1 3
928 310 1 0.7 12.969991002201418 16.320189412162623 22.995217159481207 -4 0 1
929 310 2 -0.35 14.070366062429809 16.32910297473373 22.628208610220973 -4 0 1
1166 389 2 -0.35 44.77192517589228 18.03012980169096 46.020587065272146 1 -7 5
1165 389 1 0.7 43.88148504441029 18.160536984130808 46.75250942386964 1 -7 5
1167 389 2 -0.35 42.9910449129283 18.290944166570657 47.48443178246713 1 -7 5
746 249 2 -0.35 47.14956298617262 20.69646847966363 26.00257093282571 -1 -4 1
745 249 1 0.7 46.98711541666451 21.650132460014998 25.362464848070932 -1 -4 1
747 249 2 -0.35 46.824667847156405 22.603796440366374 24.72235876331616 -1 -4 1
836 279 2 -0.35 47.445458154634814 7.237757614915378 31.577964265200723 -3 0 -1
835 279 1 0.7 46.69815144995287 7.898111129139195 30.985456100371135 -3 0 -1
837 279 2 -0.35 45.95084474527092 8.558464643363013 30.39294793554155 -3 0 -1
927 309 2 -0.35 51.54950531790994 12.98605076124844 30.978364475471395 1 5 -9
926 309 2 -0.35 52.343038124182165 13.734579154310556 33.025902248052624 1 5 -9
925 309 1 0.7 51.94627172104605 13.360314957779497 32.002133361762006 1 5 -9
270 90 2 -0.35 55.41153989916874 3.30273753945166 26.804422513561487 -5 -3 1
268 90 1 0.7 56.22548200942318 3.9558018798123995 27.310984660292586 -5 -3 1
269 90 2 -0.35 57.039424119677626 4.608866220173139 27.817546807023685 -5 -3 1
294 98 2 -0.35 74.34766063633217 22.73602180364615 24.99640209782541 1 -3 4
1432 478 1 0.7 82.25071511792537 14.904336014412696 45.78615973537604 4 -2 -3
292 98 1 0.7 75.20031032565372 21.99736933790456 24.726252061449376 1 -3 4
954 318 2 -0.35 81.63200818471593 6.848679965073144 23.221725501927992 6 1 2
952 318 1 0.7 81.6810284747379 6.821889919372885 24.380379593801912 6 1 2
953 318 2 -0.35 81.73004876475987 6.795099873672626 25.539033685675832 6 1 2
293 98 2 -0.35 76.05296001497527 21.258716872162967 24.456102025073342 1 -3 4
1433 478 2 -0.35 81.88369320789612 15.379292030485518 46.7787884173891 4 -2 -3
1434 478 2 -0.35 82.61773702795462 14.429379998339874 44.793531053362976 4 -2 -3
263 88 2 -0.35 115.52915092956539 20.34742329120575 31.64167737534774 -1 0 2
717 239 2 -0.35 97.4705233350117 23.208612736952528 37.0857909541709 5 4 -3
978 326 2 -0.35 137.7878030964668 6.072156392125723 27.950687233717098 -9 1 3
262 88 1 0.7 116.16227357365678 19.549305216650872 32.19644152037461 -1 0 2
264 88 2 -0.35 116.79539621774816 18.751187142095997 32.751205665401486 -1 0 2
506 169 2 -0.35 16.119208197560663 36.8077199708506 33.44253870735255 1 6 -1
505 169 1 0.7 15.29053100300425 36.32237341580803 34.09317902944442 1 6 -1
507 169 2 -0.35 14.46185380844784 35.83702686076546 34.743819351536295 1 6 -1
1289 430 2 -0.35 7.196156624168559 41.566351015473906 35.43989933477137 -3 -1 10
1288 430 1 0.7 6.557511466164713 40.729317575282444 35.92683606799101 -3 -1 10
1290 430 2 -0.35 5.918866308160865 39.89228413509099 36.413772801210655 -3 -1 10
452 151 2 -0.35 39.37149006029637 37.93414456516944 32.04787085670437 3 -4 6
1330 444 1 0.7 36.62551959305765 35.5535117974406 30.71050301540655 1 5 5
1331 444 2 -0.35 36.26194142398749 36.59237170601185 30.34419576003071 1 5 5
1332 444 2 -0.35 36.98909776212782 34.514651888869345 31.076810270782392 1 5 5
453 151 2 -0.35 40.11040165785404 36.12311481674569 33.295500970684394 3 -4 6
451 151 1 0.7 39.740945859075204 37.028629690957565 32.67168591369438 3 -4 6
1182 394 2 -0.35 32.33442893917194 34.786379028906524 37.698718825704546 3 -3 6
1180 394 1 0.7 31.404490992955186 34.162524936580006 37.39602841014297 3 -3 6
1181 394 2 -0.35 30.474553046738425 33.53867084425349 37.09333799458139 3 -3 6
325 109 1 0.7 29.84743799592252 45.74591108182781 30.301402085443883 -1 0 1
326 109 2 -0.35 29.62309857973201 45.66522349007321 31.436638333490812 -1 0 1
636 212 2 -0.35 45.95726502571116 41.37557155100018 35.17559119472757 0 1 5
327 109 2 -0.35 30.071777412113025 45.826598673582424 29.166165837396957 -1 0 1
1412 471 2 -0.35 61.83050617726321 34.005237066423234 22.002354594543387 0 -9 0
119 40 2 -0.35 67.33070335848909 37.40436833550249 26.476027515626626 0 -2 -6
118 40 1 0.7 66.57616954740249 38.02225768583813 27.104113081986384 0 -2 -6
120 40 2 -0.35 65.82163573631588 38.640147036173765 27.732198648346138 0 -2 -6
1016 339 2 -0.35 67.62614789822027 31.366406487062378 38.108290561815664 -3 3 5
1015 339 1 0.7 68.38038655148645 30.817571998011037 37.41872203183111 -3 3 5
1017 339 2 -0.35 69.13462520475264 30.268737508959692 36.72915350184655 -3 3 5
635 212 2 -0.35 46.75623044822107 42.85132426892931 33.57365231663189 0 1 5
634 212 1 0.7 46.35674773696611 42.11344790996475 34.37462175567973 0 1 5
197 66 2 -0.35 69.17684177322754 31.541473247483438 46.046516980400874 1 3 -1
196 66 1 0.7 69.21864863155322 31.4285817332808 44.89278057523003 1 3 -1
324 108 2 -0.35 49.306280855532556 45.428915908224724 30.585792012580235 0 -7 7
198 66 2 -0.35 69.26045548987891 31.315690219078164 43.73904417005919 1 3 -1
389 130 2 -0.35 71.32706199592754 24.605837957189042 46.84696026569016 3 -6 -1
1142 381 2 -0.35 98.62799512871116 44.17372573192304 40.77847655236888 4 -2 0
1141 381 1 0.7 98.14018340608332 44.91361269061654 40.03000677233734 4 -2 0
1143 381 2 -0.35 97.65237168345548 45.653499649310035 39.281536992305796 4 -2 0
1375 459 1 0.7 96.82974604687278 43.34857266182477 32.81310016741381 -6 8 -1
1376 459 2 -0.35 97.4503021078127 44.224027891230186 33.253654723102365 -6 8 -1
1377 459 2 -0.35 96.20918998593285 42.47311743241935 32.37254561172524 -6 8 -1
715 239 1 0.7 98.40083858896288 22.829308559897033 37.66565461878167 5 4 -3
716 239 2 -0.35 99.33115384291406 22.450004382841538 38.24551828339244 5 4 -3
1370 457 2 -0.35 132.7841482333042 36.907336836856935 26.538717847477375 -1 -4 1
1369 457 1 0.7 132.19996513289396 36.79748307974135 27.534841462920262 -1 -4 1
1371 457 2 -0.35 131.61578203248376 36.68762932262577 28.530965078363153 -1 -4 1
894 298 2 -0.35 127.3658732766379 45.241850104940184 38.91979852659836 5 -8 0
892 298 1 0.7 128.25572735757692 45.08227564855904 38.19295899306641 5 -8 0
893 298 2 -0.35 129.14558143851593 44.922701192177904 37.46611945953446 5 -8 0
1170 390 2 -0.35 20.06497359852946 69.27107455023544 37.89211576904697 -2 0 1
1168 390 1 0.7 20.168831011913596 68.7063454499423 38.90003177793219 -2 0 1
218 73 2 -0.35 21.70718604876438 56.605838909965485 31.656493529364692 1 0 -2
1169 390 2 -0.35 20.272688425297734 68.14161634964918 39.90794778681742 -2 0 1
217 73 1 0.7 22.762456746390562 57.034493582405304 31.876172673857305 1 0 -2
843 281 2 -0.35 24.62658357504526 59.48100101117232 38.35276720337451 10 -1 -1
841 281 1 0.7 24.783724988723154 59.908773371423074 39.41949930840898 10 -1 -1
842 281 2 -0.35 24.94086640240105 60.33654573167382 40.486231413443456 10 -1 -1
402 134 2 -0.35 36.77040418765077 59.42720065531128 44.57842444919227 2 1 -2
400 134 1 0.7 37.419394134004925 60.17820403372449 45.17876266648585 2 1 -2
401 134 2 -0.35 38.06838408035908 60.92920741213771 45.77910088377944 2 1 -2
219 73 2 -0.35 23.817727444016747 57.463148254845116 32.09585181834992 1 0 -2
322 108 1 0.7 49.09069468023228 46.537666748791864 30.84997788381753 0 -7 7
323 108 2 -0.35 48.87510850493201 47.64641758935901 31.11416375505483 0 -7 7
249 83 2 -0.35 50.20191035824784 63.522521130353375 41.3939729035974 1 4 3
248 83 2 -0.35 50.9371246057349 64.22414154809593 43.47953968500348 1 4 3
247 83 1 0.7 50.56951748199137 63.87333133922465 42.436756294300444 1 4 3
233 78 2 -0.35 65.00275692571236 60.26074611740135 37.481668356092776 -2 -1 4
232 78 1 0.7 65.85110794342054 59.805862269231056 38.12895595478985 -2 -1 4
234 78 2 -0.35 66.69945896112874 59.35097842106077 38.77624355348692 -2 -1 4
724 242 1 0.7 74.16553123204946 60.201296097058595 41.956026608186946 3 4 0
725 242 2 -0.35 74.77337136977921 59.21425840204259 41.91258750616495 3 4 0
726 242 2 -0.35 73.55769109431971 61.1883337920746 41.999465710208945 3 4 0
303 101 2 -0.35 133.83299641057633 65.3213595646468 40.88932490175817 -8 -2 4
301 101 1 0.7 132.67652111890197 65.23642591579554 40.85848377598828 -8 -2 4
302 101 2 -0.35 131.52004582722762 65.15149226694426 40.827642650218394 -8 -2 4
1415 472 2 -0.35 12.128662570015068 85.99840815279926 27.818975135295332 -2 -4 1
1414 472 1 0.7 12.449357025994503 87.1131472971837 27.808406035032153 -2 -4 1
1416 472 2 -0.35 12.77005148197394 88.22788644156813 27.79783693476897 -2 -4 1
989 330 2 -0.35 4.186134428037064 76.49873428921981 46.085700432807435 -3 -3 2
988 330 1 0.7 4.6903507929848685 76.94109498999032 47.03210566722401 -3 -3 2
990 330 2 -0.35 5.194567157932673 77.38345569076083 47.97851090164058 -3 -3 2
518 173 2 -0.35 10.143203159519567 75.80894822089871 40.45096474305902 -5 -2 4
519 173 2 -0.35 10.7043597727056 73.8710814106382 39.305462459702184 -5 -2 4
517 173 1 0.7 10.423781466112583 74.84001481576846 39.8782136013806 -5 -2 4
404 135 2 -0.35 11.346759618765272 77.54192371704535 44.776684367971235 -1 -6 -4
403 135 1 0.7 10.588067004026868 76.82203049921104 44.27494811130167 -1 -6 -4
405 135 2 -0.35 9.829374389288462 76.10213728137674 43.77321185463211 -1 -6 -4
1329 443 2 -0.35 22.60728031808782 81.92404409064281 27.16702882134362 -2 -1 1
1327 443 1 0.7 22.41421319023624 81.49743162639234 26.105743332189824 -2 -1 1
1328 443 2 -0.35 22.22114606238466 81.07081916214187 25.044457843036028 -2 -1 1
1436 479 2 -0.35 29.334866373425193 83.08836271036202 32.61745519624515 -4 6 -2
1435 479 1 0.7 30.182546266193487 83.25646308215092 31.843645746573348 -4 6 -2
1437 479 2 -0.35 31.03022615896178 83.42456345393981 31.069836296901542 -4 6 -2
271 91 1 0.7 40.04865631908256 73.60897520162916 31.633015850227856 1 5 4
273 91 2 -0.35 40.129596550898675 72.51682189686107 32.0154421016246 1 5 4
272 91 2 -0.35 39.96771608726644 74.70112850639725 31.250589598831112 1 5 4
501 167 2 -0.35 35.98629590047764 92.26652755797788 26.73662620776084 1 3 1
499 167 1 0.7 35.301154478020905 91.60709613641863 27.400954012006977 1 3 1
500 167 2 -0.35 34.61601305556416 90.94766471485937 28.06528181625312 1 3 1
1323 441 2 -0.35 48.59137336716803 84.16626700870412 34.50294989663007 7 -8 -3
1321 441 1 0.7 47.93770992802661 85.11479335137805 34.639411926451 7 -8 -3
1322 441 2 -0.35 47.28404648888518 86.06331969405197 34.77587395627192 7 -8 -3
1278 426 2 -0.35 101.22336491376295 74.79637788957429 32.112221967524356 -6 -3 8
1276 426 1 0.7 101.14318478155337 75.47879194688406 31.177619270767092 -6 -3 8
1277 426 2 -0.35 101.0630046493438 76.16120600419383 30.243016574009832 -6 -3 8
398 133 2 -0.35 113.46145648484936 87.58737474072876 39.33633340738538 -1 -2 1
397 133 1 0.7 113.52775156218033 88.73650030550722 39.48026185867674 -1 -2 1
399 133 2 -0.35 113.59404663951129 89.8856258702857 39.6241903099681 -1 -2 1
1185 395 2 -0.35 134.01033043544018 89.27646209135885 34.32156656479957 -2 5 -4
1184 395 2 -0.35 133.94820751440292 90.67049232974303 32.468131797357046 -2 5 -4
1183 395 1 0.7 133.97926897492155 89.97347721055094 33.39484918107831 -2 5 -4
902 301 2 -0.35 129.96119100828622 87.83154565130853 37.736524498073535 2 -3 2
1424 475 2 -0.35 128.8703104428555 81.70289578821775 30.08799529092227 -4 0 -5
1423 475 1 0.7 128.19572996296256 81.28044530669389 30.931841702783196 -4 0 -5
1425 475 2 -0.35 127.52114948306962 80.85799482517002 31.77568811464412 -4 0 -5
901 301 1 0.7 129.8219129035185 88.23068688773041 36.656298649966295 2 -3 2