LAMMPS (29 Aug 2024 - Update 1)
  using 1 OpenMP thread(s) per MPI task
package gpu 1 gpuID 0
# GCMC for CO2 molecular fluid, rigid/small/nvt dynamics
# Rigid CO2 TraPPE model
# [Potoff and J.I. Siepmann, Vapor-liquid equilibria of
# mixtures containing alkanes, carbon dioxide and
# nitrogen AIChE J., 47,1676-1682 (2001)].

# global model settings

units           real
atom_style      full
boundary        p p p
pair_style      lj/cut/coul/long  12
pair_modify     mix arithmetic shift yes
kspace_style    pppm 1.0e-4
bond_style      harmonic
angle_style     harmonic
neigh_modify    one 4000

# box, start molecules on simple cubic lattice
region          mbox block 0 ${lbox} 0 ${lbox} 0 ${lbox} units box
region          mbox block 0 139 0 ${lbox} 0 ${lbox} units box
region          mbox block 0 139 0 139 0 ${lbox} units box
region          mbox block 0 139 0 139 0 139 units box
create_box      2 mbox                                       bond/types 1                                angle/types 1                               extra/bond/per/atom 2                       extra/angle/per/atom 1                      extra/special/per/atom 2
Created orthogonal box = (0 0 0) to (139 139 139)
  1 by 1 by 1 MPI processor grid
molecule        co2mol ../CO2.txt
Read molecule template co2mol:
# CO2 molecule file. TraPPE model.
  1 molecules
  0 fragments
  3 atoms with max type 2
  2 bonds with max type 1
  1 angles with max type 1
  0 dihedrals with max type 0
  0 impropers with max type 0
create_atoms   	0 random ${nmols} 34578 mbox mol co2mol 464563 overlap 1.2
create_atoms   	0 random 500 34578 mbox mol co2mol 464563 overlap 1.2
Created 1500 atoms
  using lattice units in orthogonal box = (0 0 0) to (139 139 139)
  create_atoms CPU = 0.013 seconds

# rigid CO2 TraPPE model

pair_coeff      1   1  0.053649   2.800
pair_coeff      2   2  0.156973   3.050
bond_coeff      1       0       1.16
angle_coeff     1       0       180

# masses

mass 1 12.0107
mass 2 15.9994

write_data init_conf.data  pair ij
System init for write_data ...
PPPM initialization ...
  using 12-bit tables for long-range coulomb (src/kspace.cpp:342)
  G vector (1/distance) = 0.16705332
  grid = 30 30 30
  stencil order = 5
  estimated absolute RMS force accuracy = 0.028224335
  estimated relative force accuracy = 8.4996747e-05
  using double precision FFTW3
  3d grid and FFT values/proc = 42875 27000
Generated 1 of 1 mixed pair_coeff terms from arithmetic mixing rule

# MD settings

group           co2 type 1 2
1500 atoms in group co2
velocity       	all create 300 54654
timestep        0.25

# rigid constraints with thermostat
fix             myrigidnvt co2 rigid/nvt molecule temp 300 300 $(100*dt)
fix             myrigidnvt co2 rigid/nvt molecule temp 300 300 25
  500 rigid bodies with 1500 atoms

thermo 1000
thermo_style custom step temp density press ke pe etotal


variable    mvol equal vol
variable    mden equal density
variable	mtmp equal temp
variable    mpre equal press

fix mydat all ave/time 1 4000 4000 v_mtmp v_mden v_mpre file statistics.dat ## every 1ps

run 4000000 ## 1ns

CITE-CITE-CITE-CITE-CITE-CITE-CITE-CITE-CITE-CITE-CITE-CITE-CITE

Your simulation uses code contributions which should be cited:

- GPU package (short-range, long-range and three-body potentials): doi:10.1016/j.cpc.2010.12.021, doi:10.1016/j.cpc.2011.10.012, doi:10.1016/j.cpc.2013.08.002, doi:10.1016/j.commatsci.2014.10.068, doi:10.1016/j.cpc.2016.10.020, doi:10.3233/APC200086

@Article{Brown11,
 author = {W. M. Brown and P. Wang and S. J. Plimpton and A. N. Tharrington},
 title = {Implementing Molecular Dynamics on Hybrid High Performance Computers---Short Range Forces},
 journal = {Comput.\ Phys.\ Commun.},
 year =    2011,
 volume =  182,
 pages =   {898--911},
 doi =     {10.1016/j.cpc.2010.12.021}
}

@Article{Brown12,
 author = {W. M. Brown and A. Kohlmeyer and S. J. Plimpton and A. N. Tharrington},
 title = {Implementing Molecular Dynamics on Hybrid High Performance Computers - Particle-Particle Particle-Mesh},
 journal = {Comput.\ Phys.\ Commun.},
 year =    2012,
 volume =  183,
 doi =     {10.1016/j.cpc.2011.10.012},
 pages =   {449--459}
}

@Article{Brown13,
 author = {W. M. Brown and Y. Masako},
 title = {Implementing Molecular Dynamics on Hybrid High Performance Computers---Three-Body Potentials},
 journal = {Comput.\ Phys.\ Commun.},
 year =    2013,
 volume =  184,
 pages =   {2785--2793},
 doi =     {10.1016/j.cpc.2013.08.002},
}

@Article{Trung15,
 author = {T. D. Nguyen and S. J. Plimpton},
 title = {Accelerating Dissipative Particle Dynamics Simulations for Soft Matter Systems},
 journal = {Comput.\ Mater.\ Sci.},
 year =    2015,
 doi =     {10.1016/j.commatsci.2014.10.068},
 volume =  100,
 pages =   {173--180}
}

@Article{Trung17,
 author = {T. D. Nguyen},
 title = {{GPU}-Accelerated {T}ersoff Potentials for Massively Parallel
    Molecular Dynamics Simulations},
 journal = {Comput.\ Phys.\ Commun.},
 year =    2017,
 doi =     {10.1016/j.cpc.2016.10.020},
 volume =  212,
 pages =   {113--122}
}

@inproceedings{Nikolskiy19,
 author = {V. Nikolskiy and V. Stegailov},
 title = {{GPU} Acceleration of Four-Site Water Models in {LAMMPS}},
 booktitle = {Proceedings of the International Conference on Parallel
    Computing (ParCo 2019), Prague, Czech Republic},
 doi =     {10.3233/APC200086},
 year =    2019
}

CITE-CITE-CITE-CITE-CITE-CITE-CITE-CITE-CITE-CITE-CITE-CITE-CITE

PPPM initialization ...
  using 12-bit tables for long-range coulomb (src/kspace.cpp:342)
  G vector (1/distance) = 0.16705332
  grid = 30 30 30
  stencil order = 5
  estimated absolute RMS force accuracy = 0.028224335
  estimated relative force accuracy = 8.4996747e-05
  using double precision FFTW3
  3d grid and FFT values/proc = 42875 27000
Generated 1 of 1 mixed pair_coeff terms from arithmetic mixing rule
Per MPI rank memory allocation (min/avg/max) = 11.39 | 11.39 | 11.39 Mbytes
   Step          Temp         Density         Press          KinEng         PotEng         TotEng    
         0   307.41471      0.013605706   -158.86011      762.70438      8645.076       9407.7804    
      1000   328.82148      0.013605706    14.40659       815.81516     -15.765397      800.04977    
      2000   294.76535      0.013605706    7.9447239      731.32095     -17.974614      713.34634    
      3000   294.41858      0.013605706    6.3446006      730.4606      -26.116885      704.34372    
      4000   310.95529      0.013605706    3.9396301      771.48865     -32.363322      739.12533    
      5000   298.84901      0.013605706    7.0832283      741.45262     -30.328377      711.12424    
      6000   289.82454      0.013605706    8.8030969      719.06268     -36.076666      682.98602    
      7000   306.85346      0.013605706    7.1897559      761.31188     -37.498542      723.81334    
      8000   309.49531      0.013605706    6.5603327      767.86638     -39.317069      728.54931    
      9000   290.57794      0.013605706    6.6372748      720.93187     -42.457656      678.47421    
     10000   294.57933      0.013605706    11.661998      730.85943     -42.519109      688.34032    
     11000   304.04174      0.013605706    4.0869738      754.33594     -42.528259      711.80768    
     12000   291.70702      0.013605706    8.2618937      723.73315     -46.172346      677.5608     
     13000   277.5515       0.013605706    15.594315      688.61292     -46.991558      641.62136    
     14000   310.75671      0.013605706   -9.4608294      770.99597     -47.983997      723.01197    
     15000   298.45311      0.013605706    5.9627949      740.47039     -47.658206      692.81218    
     16000   287.51613      0.013605706    17.774759      713.33544     -40.968414      672.36703    
     17000   303.51915      0.013605706   -5.2723631      753.03939     -49.784788      703.2546     
     18000   299.76449      0.013605706    6.4397875      743.72397     -53.736189      689.98778    
     19000   316.85411      0.013605706    10.14496       786.12377     -53.369433      732.75434    
     20000   302.72901      0.013605706    7.3458167      751.07901     -56.770546      694.30847    
     21000   288.63218      0.013605706    7.5574585      716.10438     -54.913777      661.19061    
     22000   302.63856      0.013605706    8.4179917      750.85461     -61.366105      689.48851    
     23000   304.3722       0.013605706    7.1946986      755.15581     -61.824676      693.33114    
     24000   285.78609      0.013605706    6.487363       709.04318     -61.715902      647.32728    
     25000   297.41287      0.013605706    7.7503262      737.88954     -65.278644      672.6109     
     26000   320.90826      0.013605706    8.799011       796.18225     -64.392051      731.7902     
     27000   290.90168      0.013605706    7.6488687      721.73508     -62.016944      659.71813    
     28000   288.21496      0.013605706    6.2146952      715.06927     -69.931859      645.13741    
     29000   301.53712      0.013605706    8.6982122      748.1219      -70.602499      677.5194     
     30000   312.36254      0.013605706    13.230475      774.98008     -69.379824      705.60026    
     31000   301.9957       0.013605706    7.3149233      749.25965     -66.46523       682.79442    
     32000   300.28178      0.013605706    7.7139689      745.00738     -69.431922      675.57546    
     33000   299.65745      0.013605706    6.9681892      743.45839     -71.209097      672.24929    
     34000   306.22309      0.013605706    7.4178946      759.74792     -72.617786      687.13013    
     35000   314.71766      0.013605706    8.300515       780.8232      -71.3598        709.4634     
     36000   299.20419      0.013605706    8.4557797      742.33384     -68.30833       674.02551    
     37000   300.69065      0.013605706    8.5224909      746.02179     -76.202808      669.81898    
     38000   303.14314      0.013605706    6.4827792      752.10648     -75.638871      676.46761    
     39000   302.28046      0.013605706    7.2571313      749.96616     -72.366512      677.59964    
     40000   301.60945      0.013605706    7.5807181      748.30137     -74.822917      673.47845    
     41000   291.79086      0.013605706    5.5279173      723.94117     -75.688412      648.25276    
     42000   309.41688      0.013605706    4.3764006      767.67182     -65.336694      702.33512    
     43000   305.6078       0.013605706    5.5571497      758.22138     -71.62203       686.59935    
     44000   298.82788      0.013605706    12.063145      741.4002      -74.133967      667.26623    
     45000   291.94664      0.013605706    5.6880858      724.32766     -78.520751      645.80691    
     46000   309.06795      0.013605706    7.206349       766.80611     -78.845992      687.96012    
     47000   319.37211      0.013605706    6.4354445      792.371       -83.063756      709.30724    
     48000   297.22627      0.013605706    8.8952463      737.42656     -82.918249      654.50831    
     49000   291.20375      0.013605706    5.8317283      722.48454     -79.994407      642.49014    
     50000   318.03963      0.013605706    10.625755      789.0651      -77.743767      711.32133    
     51000   309.18328      0.013605706    7.4409959      767.09224     -78.995024      688.09721    
     52000   277.08833      0.013605706    6.3083842      687.46379     -83.631751      603.83204    
     53000   296.84619      0.013605706    9.6199119      736.48358     -84.656444      651.82714    
     54000   302.62555      0.013605706    9.4449441      750.82234     -76.870415      673.95193    
     55000   314.30523      0.013605706    5.3538164      779.79994     -85.204596      694.59534    
     56000   301.61805      0.013605706    10.8805        748.3227      -83.009172      665.31353    
     57000   303.07707      0.013605706    10.486875      751.94256     -86.656166      665.28639    
     58000   311.86252      0.013605706    0.34645846     773.73951     -83.301599      690.43791    
     59000   292.50924      0.013605706   -4.2607994      725.7235      -81.503657      644.21984    
     60000   291.69427      0.013605706    8.1177305      723.70153     -87.423709      636.27782    
     61000   303.33215      0.013605706    11.356582      752.57542     -85.803679      666.77174    
     62000   312.63684      0.013605706    7.9241263      775.66061     -85.937244      689.72336    
     63000   295.16725      0.013605706    6.8742052      732.31809     -92.006504      640.31158    
     64000   289.99306      0.013605706    5.9675618      719.48078     -88.590639      630.89014    
     65000   304.41969      0.013605706    9.8703875      755.27364     -84.327031      670.94661    
     66000   307.88705      0.013605706    6.5268597      763.87626     -85.514753      678.3615     
     67000   283.91519      0.013605706    8.4552214      704.40141     -77.600411      626.801      
     68000   299.47981      0.013605706    6.4687241      743.01766     -88.484848      654.53281    
     69000   309.7766       0.013605706    9.0140658      768.56429     -92.848772      675.71552    
     70000   306.74277      0.013605706    3.0103696      761.03728     -94.084131      666.95315    
     71000   293.71982      0.013605706    6.6070764      728.72697     -89.087829      639.63914    
     72000   286.24311      0.013605706    8.1089202      710.17703     -90.443786      619.73325    
     73000   290.67177      0.013605706    14.722657      721.16467     -88.112915      633.05175    
     74000   309.19173      0.013605706    4.9571635      767.1132      -86.865553      680.24764    
     75000   294.94463      0.013605706    6.2392332      731.76576     -83.828956      647.9368     
     76000   290.08837      0.013605706    7.1847986      719.71725     -86.326069      633.39118    
     77000   277.87592      0.013605706    8.0363819      689.41782     -86.136841      603.28098    
     78000   302.27262      0.013605706    16.304791      749.9467      -69.684233      680.26246    
     79000   300.67627      0.013605706    7.0733537      745.98611     -82.003007      663.98311    
     80000   297.07074      0.013605706    11.617303      737.0407      -84.341415      652.69928    
     81000   307.61966      0.013605706    6.5745837      763.21285     -86.744602      676.46825    
     82000   299.75897      0.013605706    4.9026746      743.71026     -83.651138      660.05912    
     83000   309.50539      0.013605706    6.5420079      767.8914      -79.810607      688.08079    
     84000   319.61349      0.013605706    7.2615713      792.96987     -81.489741      711.48013    
     85000   291.56237      0.013605706    7.5220407      723.37428     -84.835646      638.53863    
     86000   289.8461       0.013605706    5.7278747      719.11616     -83.957738      635.15842    
     87000   305.85673      0.013605706    4.9418727      758.83899     -87.709227      671.12976    
     88000   311.63632      0.013605706    11.51836       773.1783      -92.097164      681.08114    
     89000   293.93172      0.013605706    12.437666      729.2527      -87.26929       641.98341    
     90000   293.1111       0.013605706    2.0518775      727.21671     -88.110637      639.10608    
     91000   304.05445      0.013605706   -2.0100534      754.36746     -85.832192      668.53527    
     92000   313.79347      0.013605706    10.533246      778.53024     -90.586658      687.94359    
     93000   289.5956       0.013605706    1.0464368      718.49467     -93.819949      624.67472    
     94000   300.3512       0.013605706    6.5809416      745.17962     -93.369405      651.81021    
     95000   300.59845      0.013605706    10.300598      745.79305     -94.68958       651.10347    
     96000   295.64954      0.013605706    7.1256509      733.51466     -88.123802      645.39086    
     97000   303.86153      0.013605706    6.5502382      753.88884     -87.577532      666.31131    
     98000   293.80465      0.013605706    8.4372918      728.93743     -95.386638      633.55079    
     99000   296.57674      0.013605706    5.6366849      735.81506     -93.229646      642.58542    
    100000   307.47446      0.013605706    1.561364       762.8526      -96.857439      665.99516    
    101000   316.23237      0.013605706    6.9134702      784.58122     -87.231868      697.34935    
    102000   299.87347      0.013605706    10.491389      743.99433     -83.334641      660.65969    
    103000   294.21663      0.013605706    7.2254267      729.95957     -84.256647      645.70292    
    104000   305.28939      0.013605706    6.9609861      757.43139     -81.132969      676.29842    
    105000   300.51394      0.013605706    3.9784983      745.58337     -77.813423      667.76995    
    106000   292.35622      0.013605706    6.4983662      725.34385     -77.317611      648.02624    
    107000   284.82836      0.013605706    7.2716633      706.66702     -77.73189       628.93513    
    108000   305.58484      0.013605706    8.297176       758.16442     -82.742057      675.42236    
    109000   313.11322      0.013605706    5.6207092      776.84252     -81.082741      695.75978    
    110000   287.42239      0.013605706    6.6005211      713.10286     -80.138119      632.96474    
    111000   305.08405      0.013605706    6.0011057      756.92193     -82.514087      674.40785    
    112000   316.92664      0.013605706    8.6615057      786.30372     -84.862176      701.44155    
    113000   294.55728      0.013605706    8.5371889      730.80474     -86.669712      644.13503    
    114000   291.40142      0.013605706    7.2224207      722.97497     -86.510613      636.46435    
    115000   309.8352       0.013605706   -12.443688      768.70968     -85.187112      683.52257    
    116000   318.43553      0.013605706    3.7590507      790.04734     -89.668635      700.3787     
    117000   302.25893      0.013605706    9.8286174      749.91275     -87.689947      662.2228     
    118000   282.95586      0.013605706    6.1330014      702.0213      -86.612279      615.40902    
    119000   311.74466      0.013605706    1.2040196      773.44709     -88.046824      685.40027    
    120000   311.12723      0.013605706    3.1191762      771.91522     -83.628778      688.28644    
    121000   300.75378      0.013605706    18.293002      746.17841     -86.771887      659.40652    
    122000   295.38841      0.013605706    17.814173      732.86678     -89.861824      643.00495    
    123000   300.00649      0.013605706   -2.0567968      744.32436     -89.804266      654.5201     
    124000   302.13485      0.013605706   -5.544903       749.60489     -87.48833       662.11656    
    125000   306.92026      0.013605706    15.571326      761.47762     -86.200961      675.27666    
    126000   291.24612      0.013605706    18.467436      722.58965     -87.203747      635.3859     
    127000   297.84576      0.013605706    5.9469618      738.96354     -85.456805      653.50674    
    128000   308.69386      0.013605706    1.3853156      765.87798     -83.33303       682.54495    
    129000   300.30987      0.013605706    9.495294       745.07707     -86.80053       658.27654    
    130000   296.08277      0.013605706    7.9088477      734.58951     -86.813768      647.77574    
    131000   303.29785      0.013605706    4.1110843      752.49033     -88.090558      664.39977    
    132000   305.26099      0.013605706    7.0794216      757.36094     -90.179164      667.18177    
    133000   299.68068      0.013605706    9.7483235      743.51603     -85.552686      657.96335    
    134000   296.97461      0.013605706    4.9555946      736.8022      -85.308107      651.49409    
    135000   315.69251      0.013605706    5.1120576      783.24182     -87.01204       696.22978    
    136000   318.45006      0.013605706    8.5652116      790.08338     -88.434412      701.64897    
    137000   297.51508      0.013605706    6.4875258      738.14311     -91.672381      646.47073    
    138000   295.28636      0.013605706    7.4058139      732.6136      -90.794352      641.81925    
    139000   294.27928      0.013605706    6.1398992      730.11499     -88.244644      641.87035    
    140000   296.52233      0.013605706    6.2552384      735.68007     -89.482981      646.19709    
    141000   314.00713      0.013605706    7.0666393      779.06034     -96.538468      682.52187    
    142000   296.60403      0.013605706    9.9354133      735.88279     -94.493501      641.38929    
    143000   292.12019      0.013605706    4.2381707      724.75825     -92.594453      632.16379    
    144000   302.07816      0.013605706    3.3817867      749.46423     -96.174122      653.29011    
    145000   308.73093      0.013605706    3.591647       765.96994     -95.619224      670.35072    
    146000   293.65627      0.013605706    15.813518      728.56929     -87.878502      640.69079    
    147000   302.44657      0.013605706    0.96190632     750.37828     -93.339426      657.03886    
    148000   316.77603      0.013605706    4.9765212      785.93007     -93.812559      692.11751    
    149000   294.02488      0.013605706    14.786573      729.48383     -90.724952      638.75888    
    150000   294.5525       0.013605706    6.3738131      730.79287     -93.173987      637.61888    
    151000   304.13978      0.013605706   -1.2892593      754.57917     -88.732068      665.8471     
    152000   313.79904      0.013605706    12.250163      778.54407     -92.555068      685.989      
    153000   294.59333      0.013605706    8.7279855      730.89418     -94.83174       636.06244    
    154000   300.10544      0.013605706    5.8292444      744.56987     -91.654888      652.91498    
    155000   311.59718      0.013605706    5.2460677      773.0812      -90.800146      682.28106    
    156000   304.34996      0.013605706    7.4096676      755.10063     -87.92228       667.17835    
    157000   290.308        0.013605706    10.403753      720.26214     -90.915916      629.34623    
    158000   303.30941      0.013605706   -0.40581618     752.51902     -80.945777      671.57324    
    159000   310.03362      0.013605706    9.0901078      769.20196     -83.993847      685.20812    
    160000   292.75766      0.013605706    14.826792      726.33981     -88.25146       638.08835    
    161000   285.60693      0.013605706    6.6496865      708.59866     -86.647348      621.95131    
    162000   300.17926      0.013605706    3.9507207      744.75301     -85.502579      659.25043    
    163000   307.28304      0.013605706    5.7961611      762.37769     -83.682786      678.6949     
    164000   306.59428      0.013605706    14.114923      760.66885     -87.780983      672.88787    
    165000   283.48138      0.013605706    11.939402      703.32511     -89.710859      613.61425    
    166000   299.27713      0.013605706    3.6128354      742.5148      -86.341696      656.17311    
    167000   306.41305      0.013605706    5.9449849      760.21922     -87.024273      673.19495    
    168000   303.06307      0.013605706    13.589974      751.90784     -91.881308      660.02653    
    169000   298.2182       0.013605706    0.37352029     739.88758     -86.44109       653.44649    
    170000   301.87573      0.013605706    5.1095064      748.962       -85.87577       663.08623    
    171000   298.33654      0.013605706    6.8109272      740.18118     -90.990444      649.19074    
    172000   310.09749      0.013605706    10.665784      769.36043     -89.971197      679.38923    
    173000   289.40457      0.013605706    7.9550656      718.02072     -90.168599      627.85212    
    174000   290.94399      0.013605706    7.8297145      721.84005     -87.493118      634.34693    
    175000   296.19961      0.013605706    5.9479396      734.87939     -89.682654      645.19673    
    176000   311.86841      0.013605706    7.4148004      773.75412     -87.545819      686.2083     
    177000   300.08358      0.013605706    6.1897819      744.51564     -86.475417      658.04022    
    178000   293.92873      0.013605706    6.7392326      729.24527     -87.476103      641.76917    
    179000   298.66638      0.013605706    4.3144099      740.99952     -95.247479      645.75204    
    180000   302.46848      0.013605706    6.5634796      750.43264     -87.886462      662.54618    
    181000   300.78852      0.013605706    13.068168      746.26461     -86.162983      660.10162    
    182000   295.59599      0.013605706    6.1978158      733.38181     -87.20057       646.18124    
    183000   306.88294      0.013605706    5.0247569      761.38504     -86.394403      674.99063    
    184000   311.19201      0.013605706    11.068444      772.07595     -87.282775      684.79318    
    185000   286.05702      0.013605706    11.719325      709.71536     -91.622464      618.09289    
    186000   291.27274      0.013605706    4.288012       722.65569     -84.231489      638.4242     
    187000   314.73333      0.013605706    5.358017       780.86208     -88.938141      691.92393    
    188000   300.59056      0.013605706    8.3777336      745.77347     -87.427102      658.34637    
    189000   297.87625      0.013605706    7.5849361      739.03919     -86.013429      653.02577    
    190000   289.01609      0.013605706    7.0500933      717.05689     -89.037144      628.01975    
    191000   301.64099      0.013605706    6.2194448      748.37961     -88.387905      659.9917     
    192000   299.33182      0.013605706    7.4465917      742.6505      -86.780071      655.87043    
    193000   297.06132      0.013605706    6.7204242      737.01733     -81.28109       655.73624    
    194000   297.86677      0.013605706    6.2473856      739.01566     -84.972804      654.04286    
    195000   304.74722      0.013605706    7.7837253      756.08625     -85.181224      670.90503    
    196000   296.26127      0.013605706    11.510302      735.03237     -84.693463      650.3389     
    197000   299.95037      0.013605706    7.2284271      744.18513     -85.522513      658.66261    
    198000   304.66521      0.013605706    0.003358597    755.88279     -85.616085      670.2667     
    199000   302.0476       0.013605706    10.20901       749.38842     -80.903795      668.48462    
    200000   302.86526      0.013605706    6.9697624      751.41706     -81.176844      670.24022    
    201000   302.18399      0.013605706    7.5424543      749.72681     -84.421568      665.30524    
    202000   304.89439      0.013605706    11.791145      756.45139     -80.493543      675.95785    
    203000   296.13441      0.013605706    6.3097623      734.71763     -80.595162      654.12247    
    204000   294.244        0.013605706    10.351611      730.02747     -76.528789      653.49868    
    205000   297.98367      0.013605706    7.9347299      739.30569     -79.582688      659.723      
    206000   328.73132      0.013605706    7.2671669      815.59147     -78.428878      737.16259    
    207000   291.29143      0.013605706    7.0325612      722.70206     -72.216205      650.48586    
    208000   285.20983      0.013605706    6.3383517      707.61344     -73.642648      633.97079    
    209000   315.89195      0.013605706    6.2153791      783.73664     -73.038609      710.69803    
    210000   301.02972      0.013605706    6.1305136      746.86302     -74.129322      672.7337     
    211000   281.54019      0.013605706    6.6865119      698.50897     -81.13375       617.37522    
    212000   314.82011      0.013605706    6.8051479      781.07738     -79.175644      701.90174    
    213000   306.44104      0.013605706    9.1466957      760.28868     -75.765998      684.52268    
    214000   290.89341      0.013605706    5.8679592      721.71457     -73.825823      647.88875    
    215000   293.75756      0.013605706    6.7440451      728.82061     -76.098521      652.72209    
    216000   310.6165       0.013605706    6.7405452      770.6481      -76.284159      694.36394    
    217000   304.49229      0.013605706    5.7303432      755.45376     -82.492103      672.96166    
    218000   296.5036       0.013605706    10.191188      735.63361     -80.573948      655.05967    
    219000   310.79365      0.013605706    14.898623      771.0876      -76.271791      694.81581    
    220000   278.87745      0.013605706    6.6208832      691.90264     -70.906535      620.99611    
    221000   289.93629      0.013605706    10.129555      719.33994     -73.119888      646.22005    
    222000   312.28035      0.013605706    9.9311842      774.77615     -71.496413      703.27974    
    223000   311.40699      0.013605706    2.4653179      772.60932     -71.021386      701.58793    
    224000   281.44402      0.013605706    6.923514       698.27036     -63.403646      634.86672    
    225000   306.64644      0.013605706    10.551347      760.79826     -70.890009      689.90826    
    226000   313.18798      0.013605706    6.1994653      777.02802     -72.806852      704.22116    
    227000   302.33009      0.013605706    4.9019566      750.08928     -73.42855       676.66073    
    228000   277.41396      0.013605706    9.507907       688.27169     -71.739393      616.5323     
    229000   288.72335      0.013605706    3.7240318      716.3306      -73.932618      642.39798    
    230000   313.95034      0.013605706    13.955016      778.91944     -75.0847        703.83474    
    231000   302.16332      0.013605706    0.66623874     749.67552     -71.748636      677.92688    
    232000   294.15033      0.013605706    2.2433751      729.79509     -72.926353      656.86874    
    233000   287.93469      0.013605706    14.318631      714.37391     -74.794312      639.5796     
    234000   300.81551      0.013605706    7.1970388      746.33157     -76.085754      670.24581    
    235000   309.11706      0.013605706    6.5736735      766.92794     -79.952373      686.97557    
    236000   292.82853      0.013605706    4.7602534      726.51564     -81.481471      645.03417    
    237000   288.85542      0.013605706    9.5622323      716.65827     -74.718758      641.93951    
    238000   301.02829      0.013605706    7.6910426      746.8595      -74.662336      672.19716    
    239000   298.82176      0.013605706    3.5673322      741.38503     -75.339606      666.04543    
    240000   300.84         0.013605706    8.706602       746.39233     -76.291498      670.10083    
    241000   304.24616      0.013605706    12.027634      754.8431      -80.321387      674.52171    
    242000   299.40758      0.013605706    0.99515562     742.83847     -78.125383      664.71308    
    243000   301.35956      0.013605706    2.2276564      747.68138     -80.320147      667.36123    
    244000   298.94328      0.013605706    7.3407327      741.68651     -82.394782      659.29173    
    245000   284.53643      0.013605706    10.130083      705.94273     -73.301813      632.64091    
    246000   300.9307       0.013605706    10.431391      746.61737     -77.502436      669.11494    
    247000   316.19865      0.013605706    4.6826127      784.49756     -77.762456      706.73511    
    248000   295.22377      0.013605706    6.2382526      732.4583      -80.719012      651.73929    
    249000   296.07859      0.013605706    12.874161      734.57914     -75.425049      659.15409    
    250000   313.46046      0.013605706    7.670269       777.70404     -79.713899      697.99014    
    251000   308.55774      0.013605706    6.4337552      765.54027     -78.41512       687.12515    
    252000   297.97265      0.013605706    6.1908286      739.27835     -78.538606      660.73975    
    253000   295.69868      0.013605706    6.0581464      733.63657     -83.422675      650.21389    
    254000   305.0405       0.013605706    0.76096828     756.81388     -77.571527      679.24235    
    255000   313.19188      0.013605706    2.3644512      777.03768     -75.535238      701.50244    
    256000   293.62991      0.013605706    11.719294      728.50391     -80.382378      648.12153    
    257000   285.36149      0.013605706    11.512705      707.98972     -83.348678      624.64104    
    258000   310.17268      0.013605706    5.0622136      769.54698     -78.278777      691.2682     
    259000   308.4791       0.013605706    2.5913903      765.34516     -79.497191      685.84797    
    260000   304.09815      0.013605706    14.668648      754.4759      -78.231491      676.24441    
    261000   293.14642      0.013605706    10.173431      727.30435     -76.783296      650.52105    
    262000   297.0245       0.013605706    2.943649       736.92597     -74.109152      662.81682    
    263000   307.68361      0.013605706    1.6044191      763.37152     -75.611026      687.7605     
    264000   298.59136      0.013605706    15.829605      740.81339     -74.585648      666.22774    
    265000   291.37554      0.013605706   -1.5142957      722.91075     -75.288242      647.62251    
    266000   303.06774      0.013605706    4.364411       751.91942     -77.902267      674.01715    
    267000   306.11672      0.013605706    15.905855      759.48403     -74.08956       685.39447    
    268000   289.18542      0.013605706    8.471885       717.477       -78.422498      639.0545     
    269000   297.58771      0.013605706   -1.0936569      738.32332     -77.277212      661.04611    
    270000   308.92142      0.013605706    7.0814329      766.44255     -75.580622      690.86193    
    271000   294.84253      0.013605706    11.705118      731.51244     -74.349452      657.16299    
    272000   295.06733      0.013605706    6.702222       732.07017     -80.208452      651.86172    
    273000   308.50858      0.013605706    2.8415737      765.41828     -80.962102      684.45618    
    274000   315.99388      0.013605706    4.5905898      783.98954     -79.923558      704.06598    
    275000   301.57823      0.013605706    7.6978265      748.22389     -79.798902      668.42499    
    276000   288.82069      0.013605706    10.153913      716.5721      -79.889454      636.68264    
    277000   288.84479      0.013605706    4.4352339      716.63188     -83.309837      633.32205    
    278000   296.16784      0.013605706    7.5802381      734.80058     -77.478214      657.32237    
    279000   297.31606      0.013605706    8.5825994      737.64934     -83.403954      654.24539    
    280000   293.68256      0.013605706    6.6142893      728.63452     -77.365387      651.26914    
    281000   301.0259       0.013605706    8.2830926      746.85356     -78.062277      668.79128    
    282000   302.87349      0.013605706    7.4951581      751.43748     -79.05319       672.38429    
    283000   315.31749      0.013605706    9.8310061      782.31138     -76.940324      705.37105    
    284000   296.52409      0.013605706    6.3808644      735.68445     -82.270268      653.41418    
    285000   299.15529      0.013605706    7.6844426      742.21252     -80.618241      661.59428    
    286000   301.39183      0.013605706    7.0999359      747.76143     -74.457215      673.30422    
    287000   302.17427      0.013605706    6.7011398      749.70269     -73.262824      676.43987    
    288000   307.9762       0.013605706    8.3715593      764.09745     -73.846309      690.25114    
    289000   291.20545      0.013605706    6.4652714      722.48875     -74.94169       647.54706    
    290000   288.93172      0.013605706    7.1204419      716.84756     -72.802046      644.04551    
    291000   301.35403      0.013605706    7.3726421      747.66766     -73.867334      673.80033    
    292000   310.66931      0.013605706    9.2678566      770.77913     -73.831673      696.94746    
    293000   298.16639      0.013605706    6.3833237      739.75902     -77.70335       662.05567    
    294000   293.20139      0.013605706    6.1283573      727.44073     -73.765796      653.67493    
    295000   299.89311      0.013605706    7.3713678      744.04308     -76.181823      667.86126    
    296000   314.45873      0.013605706    6.9541746      780.18076     -75.68577       704.495      
    297000   294.5576       0.013605706    3.5772777      730.80552     -77.200636      653.60488    
    298000   293.04858      0.013605706    6.9284316      727.0616      -75.489438      651.57217    
    299000   299.79244      0.013605706    8.3785519      743.7933      -76.568704      667.2246     
    300000   305.36628      0.013605706    10.188722      757.62216     -61.808802      695.81336    
    301000   300.83652      0.013605706    7.3924322      746.38371     -73.269447      673.11426    
    302000   302.37299      0.013605706    1.1428914      750.19573     -76.076198      674.11953    
    303000   301.47559      0.013605706    6.5290043      747.96926     -77.31573       670.65353    
    304000   303.54466      0.013605706    8.192703       753.10268     -80.121062      672.98162    
    305000   306.03397      0.013605706    7.4933445      759.27872     -80.735644      678.54308    
    306000   307.5304       0.013605706    5.9721409      762.99141     -80.28798       682.70343    
    307000   299.19911      0.013605706    5.1372624      742.32123     -83.527468      658.79376    
    308000   290.47058      0.013605706    7.4888605      720.66552     -82.521544      638.14398    
    309000   300.10301      0.013605706    9.0925996      744.56383     -78.787079      665.77676    
    310000   311.93138      0.013605706    6.6151685      773.91034     -78.193869      695.71647    
    311000   282.94228      0.013605706    5.7332098      701.98761     -72.996683      628.99093    
    312000   291.13307      0.013605706    7.923162       722.30916     -69.197051      653.11211    
    313000   299.70263      0.013605706    7.3345733      743.57049     -71.621639      671.94885    
    314000   309.0765       0.013605706    7.1154856      766.82731     -70.579244      696.24807    
    315000   295.48251      0.013605706    5.4034505      733.10025     -69.261893      663.83836    
    316000   301.07282      0.013605706    13.135793      746.96997     -63.576952      683.39302    
    317000   305.69281      0.013605706    6.5642917      758.4323      -70.237845      688.19445    
    318000   288.17921      0.013605706    3.58939        714.98056     -62.708842      652.27172    
    319000   297.83475      0.013605706    18.607363      738.93623     -57.681192      681.25503    
    320000   310.8309       0.013605706    10.654913      771.18004     -66.163712      705.01633    
    321000   294.81681      0.013605706    3.8278234      731.44862     -66.832292      664.61633    
    322000   292.71038      0.013605706    7.2612854      726.22252     -68.251501      657.97102    
    323000   308.63794      0.013605706    7.8384788      765.73924     -68.583966      697.15528    
    324000   308.88602      0.013605706    7.4313212      766.35472     -67.217584      699.13714    
    325000   292.8093       0.013605706    5.0919603      726.46794     -67.422533      659.04541    
    326000   299.46324      0.013605706    6.4741466      742.97656     -75.786018      667.19054    
    327000   302.37546      0.013605706    8.481264       750.20186     -67.45478       682.74708    
    328000   303.96186      0.013605706    9.9790636      754.13776     -69.410075      684.72768    
    329000   305.16298      0.013605706   -10.542149      757.11778     -68.925504      688.19227    
    330000   297.97843      0.013605706    6.324364       739.2927      -66.475661      672.81704    
    331000   306.44915      0.013605706    8.464015       760.30878     -70.641342      689.66744    
    332000   314.13754      0.013605706    4.6706445      779.38389     -74.551352      704.83254    
    333000   291.84992      0.013605706   -3.5047012      724.0877      -65.065375      659.02233    
    334000   286.72265      0.013605706    7.7056537      711.3668      -64.107247      647.25956    
    335000   306.13481      0.013605706    10.510482      759.5289      -68.076276      691.45262    
    336000   315.82711      0.013605706    5.1424379      783.57576     -69.865865      713.7099     
    337000   295.16128      0.013605706   -0.81918714     732.30328     -66.814394      665.48888    
    338000   292.21629      0.013605706    7.7971701      724.99667     -71.126624      653.87005    
    339000   311.708        0.013605706    12.270547      773.35614     -71.086362      702.26978    
    340000   310.23954      0.013605706   -3.1091817      769.71286     -68.657968      701.05489    
    341000   292.77071      0.013605706    12.277673      726.3722      -68.917425      657.45477    
    342000   299.19915      0.013605706    13.952521      742.32135     -72.034602      670.28674    
    343000   308.74632      0.013605706    3.7711005      766.00813     -66.568095      699.44003    
    344000   296.79118      0.013605706    5.4976841      736.3471      -61.985595      674.3615     
    345000   302.71197      0.013605706    19.32085       751.03675     -56.843956      694.19279    
    346000   299.36315      0.013605706    0.14560503     742.72823     -61.551049      681.17718    
    347000   294.06538      0.013605706    1.9261789      729.58432     -61.038223      668.5461     
    348000   301.43749      0.013605706    12.339407      747.87471     -64.358358      683.51635    
    349000   309.38942      0.013605706    13.041453      767.60367     -63.071361      704.53231    
    350000   304.99214      0.013605706   -6.4737974      756.6939      -61.693713      695.00018    
    351000   284.51271      0.013605706    3.6198555      705.88387     -61.825012      644.05885    
    352000   311.07126      0.013605706    11.960953      771.77638     -61.350804      710.42558    
    353000   306.31831      0.013605706    2.1619626      759.98416     -65.229047      694.75512    
    354000   294.05645      0.013605706    6.1487312      729.56217     -67.184196      662.37797    
    355000   295.8457       0.013605706    9.140511       734.00134     -59.775931      674.22541    
    356000   298.80605      0.013605706    7.4113146      741.34605     -64.179118      677.16693    
    357000   292.30625      0.013605706   -3.4939407      725.21987     -58.926265      666.2936     
    358000   299.14118      0.013605706    9.185644       742.17751     -57.557966      684.61954    
    359000   295.53617      0.013605706    8.2678289      733.23339     -63.463137      669.77025    
    360000   317.74939      0.013605706    5.7030368      788.345       -63.251195      725.09381    
    361000   301.48628      0.013605706    6.9663263      747.99576     -62.10986       685.8859     
    362000   286.24228      0.013605706    6.6216928      710.17499     -59.918898      650.25609    
    363000   302.48218      0.013605706    7.111346       750.46664     -62.925163      687.54148    
    364000   304.30604      0.013605706    5.4832698      754.99168     -62.121483      692.8702     
    365000   296.49263      0.013605706    7.8830694      735.6064      -59.031913      676.57448    
    366000   303.47175      0.013605706    7.3883586      752.92178     -57.672062      695.24972    
    367000   299.16897      0.013605706    5.6596413      742.24647     -60.96587       681.2806     
    368000   306.05007      0.013605706    5.7875846      759.31866     -65.084149      694.23451    
    369000   298.22236      0.013605706    15.578152      739.8979      -65.591906      674.30599    
    370000   301.28831      0.013605706    7.1744756      747.50459     -64.350492      683.1541     
    371000   298.38397      0.013605706    6.9831972      740.29886     -66.824894      673.47397    
    372000   300.52896      0.013605706    6.157982       745.62063     -60.527818      685.09282    
    373000   307.77167      0.013605706    7.5039516      763.58999     -62.034201      701.55579    
    374000   297.05602      0.013605706    7.2539886      737.00418     -60.103296      676.90088    
    375000   299.30363      0.013605706    7.0171266      742.58054     -60.553478      682.02707    
    376000   285.49924      0.013605706    5.9883561      708.33148     -62.25505       646.07643    
    377000   313.87792      0.013605706    7.9774908      778.73976     -62.741843      715.99792    
    378000   302.53015      0.013605706    7.2105004      750.58563     -54.448664      696.13697    
    379000   286.29965      0.013605706    7.2521529      710.31732     -51.973147      658.34417    
    380000   296.26806      0.013605706    3.9163861      735.04923     -49.784059      685.26517    
    381000   305.62017      0.013605706    8.2434137      758.25207     -51.685508      706.56656    
    382000   295.85404      0.013605706    6.6127904      734.02203     -53.835768      680.18626    
    383000   311.82985      0.013605706    3.2892533      773.65845     -49.480855      724.17759    
    384000   303.64047      0.013605706    10.651676      753.34037     -50.847596      702.49278    
    385000   295.75024      0.013605706    13.015935      733.7645      -50.213192      683.55131    
    386000   297.83162      0.013605706    6.8078271      738.92847     -52.691874      686.23659    
    387000   305.55124      0.013605706    6.0943604      758.08105     -53.147694      704.93336    
    388000   311.83736      0.013605706    8.8140714      773.67708     -58.66802       715.00906    
    389000   291.0143       0.013605706    10.670398      722.0145      -56.760847      665.25366    
    390000   293.60462      0.013605706    0.72721529     728.44117     -54.2152        674.22597    
    391000   304.4718       0.013605706    6.9294416      755.40294     -57.397399      698.00554    
    392000   301.1787       0.013605706    17.620121      747.23265     -51.406972      695.82568    
    393000   290.00892      0.013605706   -2.5750507      719.52011     -49.228011      670.2921     
    394000   302.71741      0.013605706    2.8555168      751.05023     -46.035017      705.01522    
    395000   300.26321      0.013605706    15.336512      744.96129     -44.547487      700.4138     
    396000   288.46917      0.013605706    6.2651305      715.69996     -48.795616      666.90434    
    397000   292.90299      0.013605706   -1.5560582      726.70039     -51.024427      675.67596    
    398000   302.88337      0.013605706    9.8488943      751.46198     -51.142617      700.31937    
    399000   285.53886      0.013605706    10.689973      708.42978     -47.879895      660.54989    
    400000   303.21839      0.013605706    0.89078102     752.29318     -51.216474      701.07671    
    401000   302.44463      0.013605706    8.8037331      750.37346     -48.600063      701.77339    
    402000   296.16527      0.013605706    15.642427      734.79419     -52.897082      681.89711    
    403000   281.93886      0.013605706    4.8466015      699.49809     -45.96511       653.53298    
    404000   312.65429      0.013605706   -7.6436859      775.70391     -44.951305      730.75261    
    405000   313.2185       0.013605706    6.4232722      777.10374     -46.423254      730.68048    
    406000   290.5088       0.013605706    11.391525      720.76035     -43.55192       677.20843    
    407000   292.51458      0.013605706    6.4887658      725.73674     -47.392267      678.34447    
    408000   309.3952       0.013605706    7.0535111      767.61803     -48.922872      718.69516    
    409000   296.26543      0.013605706    7.5994931      735.04269     -44.309398      690.73329    
    410000   297.97652      0.013605706    4.4306642      739.28797     -46.123632      693.16433    
    411000   320.08416      0.013605706    8.2319489      794.13763     -46.052015      748.08561    
    412000   308.5328       0.013605706    12.146653      765.47839     -41.593441      723.88495    
    413000   291.83697      0.013605706    9.2752028      724.05556     -41.070305      682.98526    
    414000   305.64369      0.013605706    6.7005786      758.31041     -46.24718       712.06323    
    415000   307.32381      0.013605706    5.9190231      762.47884     -50.642943      711.8359     
    416000   304.33719      0.013605706    8.7451944      755.06895     -51.865298      703.20365    
    417000   289.46336      0.013605706    6.7037885      718.16657     -50.068422      668.09815    
    418000   296.05259      0.013605706    5.062093       734.51464     -48.11825       686.39639    
    419000   304.9916       0.013605706    7.7620989      756.69258     -50.548481      706.1441     
    420000   312.32575      0.013605706    7.6523471      774.88879     -52.392256      722.49653    
    421000   301.46181      0.013605706    7.3899066      747.93507     -52.794124      695.14095    
    422000   292.96297      0.013605706    8.3625225      726.84921     -45.687246      681.16197    
    423000   294.23875      0.013605706    8.5396861      730.01445     -44.108854      685.9056     
    424000   311.24512      0.013605706    8.8303224      772.20772     -44.507864      727.69986    
    425000   305.76793      0.013605706    6.9728629      758.61867     -43.044484      715.57418    
    426000   279.25838      0.013605706    6.6589387      692.84774     -46.879895      645.96784    
    427000   291.12649      0.013605706    6.9586281      722.29284     -44.848456      677.44438    
    428000   294.01985      0.013605706    8.0642496      729.47135     -41.129817      688.34154    
    429000   303.08911      0.013605706    7.7150042      751.97244     -40.891274      711.08116    
    430000   300.19574      0.013605706    5.249202       744.7939      -41.942664      702.85123    
    431000   287.31361      0.013605706    8.5241322      712.83298     -41.03369       671.79929    
    432000   311.97366      0.013605706    13.267452      774.01525     -44.444171      729.57108    
    433000   308.56454      0.013605706    7.867738       765.55712     -44.042516      721.5146     
    434000   302.80441      0.013605706    5.209212       751.26609     -38.906522      712.35957    
    435000   286.97294      0.013605706    8.8233959      711.98777     -38.053439      673.93433    
    436000   302.23476      0.013605706    12.04436       749.85277     -35.347124      714.50564    
    437000   310.45245      0.013605706    6.9776045      770.2411      -35.848795      734.3923     
    438000   319.86902      0.013605706    5.8906613      793.60386     -43.146253      750.4576     
    439000   296.55464      0.013605706    7.0446107      735.76023     -39.396361      696.36387    
    440000   294.83362      0.013605706    7.7632204      731.49033     -38.317692      693.17264    
    441000   304.77963      0.013605706    7.3348592      756.16665     -37.143326      719.02333    
    442000   301.74507      0.013605706    7.7053122      748.63784     -35.438956      713.19888    
    443000   300.62726      0.013605706    5.9313324      745.86451     -35.486626      710.37788    
    444000   302.93411      0.013605706    7.88842        751.58788     -34.579         717.00888    
    445000   299.27138      0.013605706    4.3754979      742.50055     -32.531471      709.96908    
    446000   293.40444      0.013605706    8.4794083      727.94451     -34.709079      693.23543    
    447000   316.7617       0.013605706    8.8492179      785.8945      -35.885667      750.00883    
    448000   302.91774      0.013605706    6.5041118      751.54727     -36.356675      715.1906     
    449000   297.32277      0.013605706    7.0994671      737.666       -36.922718      700.74328    
    450000   304.26658      0.013605706    8.266283       754.89378     -33.55843       721.33535    
    451000   314.37369      0.013605706    8.7381457      779.96978     -34.93025       745.03953    
    452000   307.67401      0.013605706    5.5256658      763.34769     -37.686549      725.66114    
    453000   285.77938      0.013605706    6.8674344      709.02651     -35.833222      673.19329    
    454000   290.6623       0.013605706    6.7843089      721.14118     -37.469314      683.67187    
    455000   310.77887      0.013605706    7.6846931      771.05094     -37.296659      733.75428    
    456000   302.55508      0.013605706    6.7866186      750.64748     -38.017938      712.62955    
    457000   298.93985      0.013605706    6.6007162      741.67801     -35.58184       706.09617    
    458000   295.4383       0.013605706    6.5398171      732.99056     -35.386111      697.60445    
    459000   295.37648      0.013605706    8.8057015      732.83719     -35.525767      697.31142    
    460000   309.72197      0.013605706    5.7754125      768.42874     -34.728827      733.69991    
    461000   303.24909      0.013605706    6.6743171      752.36936     -33.520157      718.8492     
    462000   293.29259      0.013605706    10.250241      727.667       -34.262182      693.40481    
    463000   305.70454      0.013605706    8.3278293      758.4614      -33.439313      725.02208    
    464000   301.49801      0.013605706    6.9513568      748.02487     -34.909843      713.11502    
    465000   299.81799      0.013605706    5.94808        743.85669     -32.050672      711.80602    
    466000   298.72014      0.013605706    7.2875427      741.1329      -30.259751      710.87315    
    467000   296.5715       0.013605706    8.5432781      735.80206     -35.975454      699.8266     
    468000   303.04878      0.013605706    7.3000444      751.87239     -35.37114       716.50124    
    469000   307.43019      0.013605706    5.8382458      762.74276     -36.190015      726.55275    
    470000   293.04581      0.013605706    5.70408        727.05474     -37.250155      689.80458    
    471000   292.90335      0.013605706    6.001871       726.70127     -38.464778      688.2365     
    472000   299.05399      0.013605706    11.410002      741.9612      -36.513086      705.44811    
    473000   307.53825      0.013605706    6.8114704      763.01088     -35.295821      727.71506    
    474000   295.52934      0.013605706    6.1702268      733.21644     -42.112445      691.104      
    475000   287.23979      0.013605706    5.813913       712.64984     -43.035154      669.61469    
    476000   298.33334      0.013605706    7.6168007      740.17324     -36.765378      703.40787    
    477000   307.8008       0.013605706    5.1284519      763.66228     -39.320547      724.34173    
    478000   288.98058      0.013605706    10.933201      716.96878     -36.695834      680.27294    
    479000   300.01337      0.013605706    13.592062      744.34144     -36.73322       707.60822    
    480000   305.05952      0.013605706    0.17894034     756.86107     -35.348406      721.51267    
    481000   304.24703      0.013605706    7.9901764      754.84527     -32.546511      722.29876    
    482000   298.30003      0.013605706    9.4848586      740.09059     -45.678417      694.41218    
    483000   311.68223      0.013605706    11.721276      773.29222     -39.065269      734.22695    
    484000   305.84101      0.013605706    3.1544742      758.79997     -36.898384      721.90158    
    485000   284.073        0.013605706    7.5714341      704.79293     -39.11553       665.6774     
    486000   299.53542      0.013605706    9.0332906      743.15563     -38.722032      704.4336     
    487000   305.24753      0.013605706    2.3878729      757.32753     -37.918899      719.40863    
    488000   291.34807      0.013605706    6.5759885      722.8426      -38.385347      684.45725    
    489000   299.82377      0.013605706    9.9634529      743.87105     -38.678327      705.19272    
    490000   302.95783      0.013605706    9.1336584      751.64674     -38.566514      713.08022    
    491000   308.24509      0.013605706    9.8420792      764.76457     -37.121254      727.64332    
    492000   297.57816      0.013605706    7.0349009      738.29961     -35.146567      703.15305    
    493000   292.3519       0.013605706    3.6857788      725.33313     -33.42882       691.90431    
    494000   307.01552      0.013605706    7.5995908      761.71398     -36.897383      724.81659    
    495000   311.2558       0.013605706    11.415517      772.23421     -33.363362      738.87085    
    496000   300.35574      0.013605706    6.8888222      745.19086     -38.630805      706.56006    
    497000   303.42046      0.013605706    2.9529189      752.79452     -37.548532      715.24599    
    498000   321.75745      0.013605706    5.1551829      798.28911     -46.397092      751.89202    
    499000   289.79582      0.013605706    10.703526      718.99143     -42.267047      676.72438    
    500000   281.87826      0.013605706    7.0908316      699.34772     -37.422315      661.92541    
    501000   307.60933      0.013605706    4.7705468      763.18722     -35.84142       727.3458     
    502000   302.80046      0.013605706    10.649879      751.25628     -33.118586      718.13769    
    503000   289.81171      0.013605706    9.3136665      719.03084     -37.411915      681.61893    
    504000   300.082        0.013605706    8.6843643      744.51171     -35.810266      708.70144    
    505000   294.88613      0.013605706    8.6942373      731.62061     -36.414702      695.20591    
    506000   304.60014      0.013605706    0.39639301     755.72134     -33.166893      722.55445    
    507000   324.29036      0.013605706    0.31899023     804.57333     -33.051919      771.52141    
    508000   296.99588      0.013605706    10.288334      736.85496     -34.237034      702.61792    
    509000   291.60337      0.013605706    8.2433578      723.476       -37.448313      686.02768    
    510000   298.71158      0.013605706   -0.9334795      741.11167     -37.626234      703.48544    
    511000   298.70574      0.013605706    6.0608482      741.09717     -37.468166      703.62901    
    512000   300.81765      0.013605706    5.5857822      746.33689     -34.282219      712.05467    
    513000   307.46052      0.013605706    12.496172      762.81803     -35.025162      727.79287    
    514000   290.01786      0.013605706    9.1772931      719.54231     -33.154803      686.38751    
    515000   295.68085      0.013605706    3.8999217      733.59235     -32.718991      700.87336    
    516000   309.31681      0.013605706    13.173295      767.42354     -36.011135      731.41241    
    517000   301.96091      0.013605706    7.8243784      749.17335     -33.135308      716.03804    
    518000   300.32193      0.013605706    4.7403875      745.10698     -27.548869      717.55811    
    519000   298.95759      0.013605706    7.4424894      741.72202     -25.726106      715.99591    
    520000   292.73901      0.013605706    9.4860081      726.29356     -28.845032      697.44853    
    521000   310.77961      0.013605706    5.1756944      771.05277     -29.384438      741.66834    
    522000   305.75826      0.013605706    9.6232361      758.59467     -30.892787      727.70189    
    523000   291.52812      0.013605706    7.9754931      723.2893      -32.452244      690.83706    
    524000   289.2101       0.013605706   -2.0920714      717.53823     -31.050957      686.48727    
    525000   306.40285      0.013605706   -2.0964266      760.19392     -31.90892       728.285      
    526000   308.99212      0.013605706    12.252471      766.61797     -34.346675      732.2713     
    527000   298.10673      0.013605706    9.416908       739.611       -30.647034      708.96397    
    528000   290.94774      0.013605706    0.3792374      721.84937     -33.39981       688.44956    
    529000   314.20608      0.013605706    2.2084702      779.55396     -35.124958      744.429      
    530000   304.60013      0.013605706    10.381408      755.72132     -35.861466      719.85985    
    531000   297.39861      0.013605706    6.8033218      737.85416     -34.313881      703.54028    
    532000   306.88861      0.013605706    2.2695005      761.3991      -31.811212      729.58789    
    533000   296.3697       0.013605706    10.084037      735.30139     -30.404906      704.89648    
    534000   302.25625      0.013605706    6.9207564      749.9061      -26.886023      723.02007    
    535000   287.16964      0.013605706    5.612689       712.4758      -29.536215      682.93958    
    536000   305.91809      0.013605706    7.9103321      758.9912      -32.459945      726.53126    
    537000   304.5458       0.013605706    6.9260557      755.58654     -29.337059      726.24948    
    538000   294.33522      0.013605706    7.4770138      730.2538      -28.927116      701.32668    
    539000   301.44818      0.013605706    7.2560961      747.90124     -21.353642      726.5476     
    540000   317.45321      0.013605706    6.7172605      787.61017     -26.042511      761.56766    
    541000   290.14079      0.013605706    7.7232509      719.8473      -25.148805      694.6985     
    542000   294.52568      0.013605706    7.7454573      730.72634     -29.195187      701.53116    
    543000   311.67176      0.013605706    7.4034227      773.26623     -25.265653      748.00058    
    544000   303.64613      0.013605706    6.7510246      753.35441     -24.167793      729.18661    
    545000   280.97547      0.013605706    7.9494336      697.10788     -22.76107       674.34681    
    546000   296.98358      0.013605706    7.3993204      736.82446     -27.295794      709.52866    
    547000   305.76245      0.013605706    8.0831441      758.60508     -29.519416      729.08566    
    548000   304.35057      0.013605706    6.6175031      755.10216     -27.668532      727.43363    
    549000   292.64313      0.013605706    7.6691777      726.05567     -31.802951      694.25272    
    550000   289.37339      0.013605706    7.3234697      717.94336     -31.522673      686.42069    
    551000   300.43075      0.013605706    6.6792926      745.37696     -35.973261      709.4037     
    552000   303.77277      0.013605706    1.4792653      753.66861     -33.742626      719.92598    
    553000   311.20087      0.013605706    8.7103738      772.09794     -32.805942      739.29199    
    554000   303.57031      0.013605706    10.028525      753.16632     -32.560706      720.60561    
    555000   299.49324      0.013605706    9.2555177      743.05098     -35.803566      707.24741    
    556000   298.19778      0.013605706    5.450067       739.83691     -32.568653      707.26826    
    557000   299.77241      0.013605706    7.1011198      743.74362     -30.586559      713.15706    
    558000   316.41757      0.013605706    8.3618414      785.0407      -27.312653      757.72805    
    559000   295.67581      0.013605706    6.9611273      733.57984     -27.241214      706.33863    
    560000   295.70456      0.013605706    7.5984685      733.65118     -33.809187      699.84199    
    561000   303.3259       0.013605706    7.0334846      752.55992     -34.389641      718.17028    
    562000   300.7075       0.013605706    4.7222628      746.06359     -36.354327      709.70926    
    563000   304.02629      0.013605706    9.4066384      754.29762     -36.413971      717.88365    
    564000   301.84467      0.013605706    6.9795458      748.88494     -35.972786      712.91216    
    565000   295.9551       0.013605706    6.3161156      734.27277     -30.749858      703.52291    
    566000   313.03003      0.013605706    11.868061      776.63613     -28.937231      747.6989     
    567000   300.9133       0.013605706    6.6120482      746.5742      -27.066571      719.50763    
    568000   297.43435      0.013605706    7.6515803      737.94283     -28.525738      709.41709    
    569000   311.49034      0.013605706    12.662515      772.81612     -32.316299      740.49982    
    570000   303.82439      0.013605706    9.8780266      753.7967      -32.12748       721.66922    
    571000   293.73524      0.013605706    3.67247        728.76523     -32.336163      696.42907    
    572000   293.38951      0.013605706    12.157765      727.90747     -34.534009      693.37346    
    573000   311.91636      0.013605706    8.2647635      773.8731      -32.006092      741.86701    
    574000   306.89916      0.013605706    6.1368389      761.42527     -32.948789      728.47648    
    575000   281.11133      0.013605706    7.4669363      697.44495     -33.122238      664.32272    
    576000   310.40048      0.013605706    7.2692735      770.11215     -28.261348      741.8508     
    577000   296.46657      0.013605706    8.8328877      735.54172     -29.100748      706.44098    
    578000   293.78985      0.013605706    7.4357885      728.90073     -26.910649      701.99008    
    579000   300.51826      0.013605706    7.3715863      745.59409     -26.37761       719.21648    
    580000   311.23018      0.013605706    9.0677248      772.17066     -31.244768      740.92589    
    581000   283.99389      0.013605706    7.173013       704.59667     -28.86191       675.73476    
    582000   291.70294      0.013605706    7.1995658      723.72305     -30.102995      693.62005    
    583000   303.15325      0.013605706    7.6281477      752.13157     -23.817701      728.31387    
    584000   305.96556      0.013605706    7.252382       759.10899     -23.813677      735.29531    
    585000   298.7236       0.013605706    10.67298       741.14148     -25.860295      715.28119    
    586000   293.34306      0.013605706    11.280041      727.79222     -29.213743      698.57848    
    587000   297.44383      0.013605706    2.8573907      737.96634     -32.400068      705.56627    
    588000   298.29423      0.013605706   -1.1929815      740.0762      -31.560592      708.51561    
    589000   310.15422      0.013605706    10.60108       769.50117     -27.977394      741.52378    
    590000   284.72724      0.013605706    8.7313327      706.41612     -25.425414      680.99071    
    591000   299.22861      0.013605706    0.15098898     742.39443     -25.726259      716.66817    
    592000   306.7709       0.013605706    7.8487536      761.10707     -24.585038      736.52203    
    593000   295.96135      0.013605706    11.450887      734.28826     -26.504559      707.7837     
    594000   291.80541      0.013605706    2.8256947      723.97728     -28.915828      695.06145    
    595000   297.27292      0.013605706    4.455252       737.54232     -26.111751      711.43057    
    596000   310.90808      0.013605706    7.075545       771.37152     -28.726014      742.64551    
    597000   317.84131      0.013605706    7.4715068      788.57306     -27.581672      760.99139    
    598000   302.25861      0.013605706    8.0475435      749.91193     -26.498907      723.41302    
    599000   282.60365      0.013605706    6.999082       701.14744     -27.574587      673.57286    
    600000   307.69115      0.013605706    13.921222      763.39023     -30.932949      732.45728    
    601000   310.61763      0.013605706    9.4563695      770.65091     -31.561778      739.08913    
    602000   285.08859      0.013605706    6.9314888      707.31265     -28.433883      678.87877    
    603000   294.92672      0.013605706    7.2316526      731.72133     -31.833565      699.88777    
    604000   300.61266      0.013605706    11.166281      745.8283      -28.710887      717.11741    
    605000   294.15472      0.013605706    10.62255       729.80596     -26.758478      703.04748    
    606000   301.2436       0.013605706    4.1610185      747.39368     -24.774273      722.61941    
    607000   303.42482      0.013605706    6.8623529      752.80533     -28.288362      724.51697    
    608000   300.10023      0.013605706    6.7766381      744.55695     -28.990701      715.56624    
    609000   297.52609      0.013605706    7.7520848      738.17043     -30.82184       707.34859    
    610000   304.01349      0.013605706    15.239619      754.26586     -28.339038      725.92682    
    611000   302.78075      0.013605706    10.13426       751.20739     -28.268351      722.93904    
    612000   305.27872      0.013605706   -0.87347139     757.40492     -35.436362      721.96855    
    613000   303.31485      0.013605706    11.747001      752.53251     -31.21774       721.31477    
    614000   293.05223      0.013605706    5.9481397      727.07067     -27.505709      699.56496    
    615000   305.84477      0.013605706    6.9191659      758.80931     -27.028853      731.78046    
    616000   308.65622      0.013605706    7.6851634      765.7846      -25.280712      740.50388    
    617000   301.42838      0.013605706    10.540333      747.85212     -26.615215      721.2369     
    618000   283.48668      0.013605706    4.2140935      703.33827     -28.737233      674.60103    
    619000   302.32937      0.013605706    6.7638029      750.08751     -29.946195      720.14131    
    620000   304.29782      0.013605706    10.874889      754.97128     -24.026832      730.94445    
    621000   303.98346      0.013605706    7.7372134      754.19135     -22.514086      731.67726    
    622000   300.55922      0.013605706    7.7487606      745.69571     -25.919783      719.77592    
    623000   316.20487      0.013605706    8.1969666      784.513       -27.112277      757.40072    
    624000   296.499        0.013605706    7.1400773      735.62219     -22.900533      712.72166    
    625000   296.77865      0.013605706    7.3423465      736.316       -27.002482      709.31352    
    626000   304.83225      0.013605706    8.2613581      756.29722     -27.27703       729.02019    
    627000   312.45637      0.013605706    9.0295346      775.21286     -25.983738      749.22913    
    628000   311.36004      0.013605706    12.163142      772.49285     -25.548033      746.94481    
    629000   298.94906      0.013605706    5.3243111      741.70087     -23.35731       718.34356    
    630000   301.85701      0.013605706    5.7987898      748.91556     -22.248043      726.66752    
    631000   300.70051      0.013605706    9.58061        746.04626     -21.014061      725.0322     
    632000   305.01594      0.013605706    7.2484944      756.75296     -26.256595      730.49636    
    633000   301.65355      0.013605706    6.8484381      748.41078     -21.714136      726.69664    
    634000   314.00116      0.013605706    7.3196441      779.04554     -23.994592      755.05095    
    635000   281.48983      0.013605706    6.6378383      698.38404     -25.060747      673.32329    
    636000   301.20799      0.013605706    7.4421965      747.30532     -25.587759      721.71756    
    637000   306.83569      0.013605706    9.6950885      761.26779     -24.322564      736.94523    
    638000   305.94808      0.013605706    7.9359733      759.06562     -22.365205      736.70042    
    639000   282.61146      0.013605706    7.0505247      701.16682     -26.141301      675.02552    
    640000   297.44259      0.013605706    7.096859       737.96327     -23.875984      714.08728    
    641000   315.80779      0.013605706    7.5538041      783.52784     -23.663984      759.86385    
    642000   308.0564       0.013605706    6.8487112      764.29641     -24.56459       739.73182    
    643000   294.60933      0.013605706    6.8236428      730.93386     -27.140869      703.79299    
    644000   285.39845      0.013605706    9.0629996      708.08143     -29.663578      678.41785    
    645000   304.21654      0.013605706    7.3106868      754.76961     -24.937464      729.83215    
    646000   297.15805      0.013605706    6.5108709      737.25731     -26.945276      710.31203    
    647000   294.71942      0.013605706    6.4804987      731.20699     -25.616376      705.59062    
    648000   298.42296      0.013605706    7.86604        740.39558     -26.451165      713.94442    
    649000   303.73508      0.013605706    9.3367666      753.57512     -24.113015      729.4621     
    650000   299.40549      0.013605706    8.5162732      742.83327     -24.191821      718.64145    
    651000   304.87352      0.013605706    6.538708       756.3996      -25.775092      730.62451    
    652000   295.76634      0.013605706    5.3364419      733.80443     -27.39883       706.4056     
    653000   290.20764      0.013605706    8.1496931      720.01315     -32.557443      687.4557     
    654000   308.26492      0.013605706    9.5409739      764.81377     -25.137752      739.67602    
    655000   308.66976      0.013605706    6.9934774      765.81819     -27.126647      738.69154    
    656000   291.46277      0.013605706    8.4912725      723.12716     -24.873304      698.25386    
    657000   295.23165      0.013605706    8.998592       732.47786     -24.846998      707.63086    
    658000   309.12546      0.013605706    3.9324423      766.94878     -27.222348      739.72644    
    659000   296.44751      0.013605706    7.844001       735.49443     -30.981358      704.51308    
    660000   304.53422      0.013605706    10.133677      755.55778     -31.971129      723.58665    
    661000   308.89902      0.013605706    7.7070335      766.38698     -33.143203      733.24377    
    662000   299.93586      0.013605706    7.2221931      744.14914     -33.867176      710.28196    
    663000   300.17583      0.013605706    5.0277699      744.74452     -30.946765      713.79775    
    664000   292.40373      0.013605706    12.57664       725.46171     -28.675436      696.78627    
    665000   291.31246      0.013605706    14.591865      722.75425     -26.191953      696.5623     
    666000   300.28626      0.013605706    16.681549      745.01849     -22.775606      722.24289    
    667000   305.32798      0.013605706   -0.46452978     757.52712     -26.16402       731.3631     
    668000   302.53059      0.013605706    8.5802142      750.58674     -26.904182      723.68255    
    669000   297.55293      0.013605706    10.928142      738.23701     -28.225885      710.01113    
    670000   300.83786      0.013605706    5.9323564      746.38703     -30.416693      715.97034    
    671000   303.43111      0.013605706    4.7874054      752.82094     -26.395411      726.42553    
    672000   310.66087      0.013605706    3.3244519      770.75818     -28.170487      742.58769    
    673000   302.01529      0.013605706    10.288704      749.30826     -33.220587      716.08767    
    674000   297.57441      0.013605706    14.498327      738.29033     -24.606809      713.68352    
    675000   307.73057      0.013605706    2.7316855      763.48803     -25.844692      737.64333    
    676000   284.1956       0.013605706    9.3641261      705.09711     -25.228973      679.86814    
    677000   287.50401      0.013605706    12.63987       713.30538     -26.090679      687.21471    
    678000   300.89535      0.013605706    12.795602      746.52966     -26.697416      719.83224    
    679000   323.10987      0.013605706    9.5799698      801.64449     -26.285915      775.35858    
    680000   297.10365      0.013605706    7.1835846      737.12235     -28.252681      708.86967    
    681000   291.74045      0.013605706    6.5132456      723.8161      -30.160671      693.65543    
    682000   301.75716      0.013605706    8.8821134      748.66783     -30.31287       718.35496    
    683000   297.5378       0.013605706    9.0509941      738.19948     -27.569107      710.63037    
    684000   309.2479       0.013605706    7.8304063      767.25255     -28.905565      738.34699    
    685000   307.63371      0.013605706    6.1844646      763.24771     -32.505109      730.74261    
    686000   282.42081      0.013605706    5.5388224      700.69382     -27.782983      672.91083    
    687000   285.76398      0.013605706    6.5181649      708.98831     -27.409959      681.57835    
    688000   303.77643      0.013605706    8.2760021      753.67771     -29.330588      724.34712    
    689000   317.98992      0.013605706    8.6672459      788.94176     -28.126681      760.81508    
    690000   304.96042      0.013605706    3.4235166      756.6152      -30.490421      726.12478    
    691000   289.69573      0.013605706    7.5131974      718.74309     -33.162725      685.58037    
    692000   311.1981       0.013605706    7.2037187      772.09107     -34.748175      737.34289    
    693000   302.48258      0.013605706    7.6414966      750.46762     -33.993246      716.47438    
    694000   290.70203      0.013605706    7.0762768      721.23975     -33.873172      687.36658    
    695000   296.3968       0.013605706    9.7200887      735.36862     -29.870276      705.49834    
    696000   313.37391      0.013605706    7.5053397      777.48931     -29.1156        748.37371    
    697000   314.53136      0.013605706    6.6269514      780.36098     -28.242917      752.11806    
    698000   293.20772      0.013605706    3.7914537      727.45643     -25.542303      701.91412    
    699000   297.29035      0.013605706    7.773165       737.58556     -24.428955      713.15661    
    700000   319.15156      0.013605706    8.0635555      791.82382     -25.092252      766.73157    
    701000   297.67724      0.013605706    6.9843802      738.54544     -27.522974      711.02247    
    702000   291.27799      0.013605706    7.4760895      722.66871     -23.434944      699.23377    
    703000   299.88057      0.013605706    6.9143109      744.01196     -26.325648      717.68631    
    704000   301.30106      0.013605706    8.9513119      747.53624     -24.464401      723.07184    
    705000   302.55998      0.013605706    7.7450874      750.65966     -24.594404      726.06525    
    706000   301.63497      0.013605706    5.6636683      748.36467     -27.547073      720.8176     
    707000   295.21301      0.013605706    6.3231226      732.43162     -23.470446      708.96117    
    708000   302.69512      0.013605706    6.997346       750.99493     -18.492121      732.50281    
    709000   300.42689      0.013605706    9.9382866      745.3674      -23.500592      721.86681    
    710000   305.10482      0.013605706    6.4813863      756.97348     -21.575108      735.39837    
    711000   297.89405      0.013605706    6.5913926      739.08335     -24.955201      714.12815    
    712000   303.50602      0.013605706    8.5309663      753.00681     -22.513623      730.49319    
    713000   308.74517      0.013605706    8.1189387      766.00527     -23.347734      742.65754    
    714000   298.2723       0.013605706    8.6144595      740.02181     -28.831136      711.19067    
    715000   302.58737      0.013605706    7.5175984      750.72759     -26.433583      724.29401    
    716000   310.61496      0.013605706    7.0810961      770.64429     -26.109817      744.53447    
    717000   305.3312       0.013605706    6.2956177      757.53512     -21.114514      736.42061    
    718000   307.89212      0.013605706    7.4331789      763.88884     -24.324523      739.56432    
    719000   295.92995      0.013605706    7.3248208      734.21036     -25.669875      708.54049    
    720000   292.81426      0.013605706    7.2673619      726.48025     -22.610915      703.86934    
    721000   301.0468       0.013605706    9.4267434      746.90541     -23.852268      723.05315    
    722000   301.22579      0.013605706    6.5776351      747.34949     -23.017337      724.33215    
    723000   293.18138      0.013605706    7.0251757      727.39109     -22.63582       704.75527    
    724000   298.35243      0.013605706    6.9157459      740.22061     -19.190596      721.03002    
[...]
   3823000   298.51682      0.013605706    6.4769129      740.62845     -25.405269      715.22318    
   3824000   307.04913      0.013605706    7.4400424      761.79734     -30.245515      731.55183    
   3825000   293.20621      0.013605706    8.9212954      727.4527      -28.134208      699.31849    
   3826000   277.12954      0.013605706    6.9842548      687.56602     -28.944373      658.62164    
   3827000   293.04022      0.013605706    6.5879828      727.04085     -25.965721      701.07513    
   3828000   309.93752      0.013605706    6.8495439      768.96353     -29.841942      739.12159    
   3829000   302.68969      0.013605706    8.2752356      750.98147     -27.269341      723.71213    
   3830000   292.50493      0.013605706    8.458087       725.7128      -22.954065      702.75874    
   3831000   308.43391      0.013605706    7.2712801      765.23303     -22.150671      743.08236    
   3832000   299.83783      0.013605706    5.6578834      743.90592     -23.554048      720.35187    
   3833000   300.94833      0.013605706    6.8857769      746.66111     -26.262022      720.39909    
   3834000   308.70849      0.013605706    10.0071        765.91427     -28.111044      737.80323    
   3835000   297.84372      0.013605706    5.4293095      738.95847     -25.481384      713.47709    
   3836000   296.16859      0.013605706    1.3069736      734.80244     -26.060203      708.74224    
   3837000   303.49867      0.013605706    7.146831       752.98857     -27.234282      725.75429    
   3838000   305.64821      0.013605706    11.977669      758.32163     -23.965806      734.35583    
   3839000   280.44332      0.013605706    6.0487463      695.7876      -23.244901      672.5427     
   3840000   297.88922      0.013605706    5.4553143      739.07137     -24.55867       714.5127     
   3841000   314.65243      0.013605706    2.9484259      780.66135     -24.955625      755.70572    
   3842000   297.99492      0.013605706    13.457414      739.3336      -25.328494      714.00511    
   3843000   288.25852      0.013605706    3.6057747      715.17734     -25.489607      689.68773    
   3844000   305.89376      0.013605706    6.678909       758.93085     -22.682559      736.24829    
   3845000   302.19814      0.013605706    17.522848      749.76193     -23.465938      726.29599    
   3846000   293.72208      0.013605706    10.18143       728.73257     -22.573915      706.15866    
   3847000   291.10248      0.013605706    4.1578477      722.23327     -27.868305      694.36497    
   3848000   308.09125      0.013605706   -0.29792331     764.38288     -23.629585      740.75329    
   3849000   306.21133      0.013605706    9.1109094      759.71876     -27.027821      732.69094    
   3850000   294.24387      0.013605706    10.071697      730.02715     -22.453755      707.5734     
   3851000   295.21806      0.013605706    0.099585304    732.44415     -25.169844      707.27431    
   3852000   317.52244      0.013605706    8.4049734      787.78192     -23.966915      763.81501    
   3853000   291.20582      0.013605706    9.9247543      722.48967     -23.934507      698.55516    
   3854000   284.94944      0.013605706    11.427165      706.96741     -22.825909      684.1415     
   3855000   303.36841      0.013605706    6.0247318      752.6654      -19.277401      733.388      
   3856000   301.4481       0.013605706    6.7024414      747.90104     -21.828414      726.07263    
   3857000   290.06497      0.013605706    14.2711        719.65918     -21.127522      698.53165    
   3858000   296.17561      0.013605706    9.6652344      734.81986     -20.26006       714.5598     
   3859000   313.67562      0.013605706    4.8506735      778.23785     -18.94363       759.29422    
   3860000   303.41542      0.013605706    5.3917356      752.78203     -20.989858      731.79217    
   3861000   300.00016      0.013605706    10.438952      744.30866     -22.807112      721.50155    
   3862000   299.46052      0.013605706    11.823305      742.9698      -23.312321      719.65748    
   3863000   283.41095      0.013605706    9.9169646      703.15037     -20.748189      682.40218    
   3864000   296.63977      0.013605706    6.3504783      735.97144     -22.296464      713.67498    
   3865000   301.56737      0.013605706    11.014006      748.19696     -19.036439      729.16052    
   3866000   294.97818      0.013605706    7.1471798      731.849       -21.361706      710.48729    
   3867000   303.99943      0.013605706    0.77935231     754.23097     -21.315529      732.91544    
   3868000   299.07163      0.013605706    7.7019242      742.00496     -25.37447       716.63049    
   3869000   301.46555      0.013605706    7.8181785      747.94433     -21.844862      726.09947    
   3870000   308.44996      0.013605706    6.7537898      765.27286     -23.646418      741.62644    
   3871000   313.41574      0.013605706    4.8677659      777.5931      -20.026471      757.56663    
   3872000   321.86037      0.013605706    12.539347      798.54445     -19.552741      778.99171    
   3873000   296.8214       0.013605706    8.6987908      736.42207     -19.388059      717.03401    
   3874000   303.6557       0.013605706    6.5243116      753.37815     -19.069162      734.30899    
   3875000   299.03969      0.013605706    0.18662367     741.9257      -19.621523      722.30418    
   3876000   291.45318      0.013605706    7.8704259      723.10338     -16.772921      706.33046    
   3877000   300.56612      0.013605706    9.7049982      745.71283     -13.866137      731.84669    
   3878000   292.46268      0.013605706    7.7598807      725.60796     -18.665738      706.94223    
   3879000   302.60179      0.013605706    4.2354691      750.76337     -18.009533      732.75384    
   3880000   297.72002      0.013605706    7.3153498      738.65158     -19.871275      718.78031    
   3881000   307.25319      0.013605706    13.028837      762.30363     -19.152611      743.15102    
   3882000   292.79629      0.013605706    8.3336184      726.43566     -18.571952      707.86371    
   3883000   295.59783      0.013605706    5.4367086      733.38636     -23.557309      709.82905    
   3884000   305.26906      0.013605706    7.7363554      757.38096     -22.98654       734.39442    
   3885000   305.738        0.013605706    7.284523       758.54441     -21.624104      736.92031    
   3886000   305.59049      0.013605706    2.9063472      758.17842     -21.813476      736.36494    
   3887000   300.23693      0.013605706    7.5024058      744.89611     -18.857514      726.0386     
   3888000   300.11804      0.013605706    6.7930664      744.60113     -17.250504      727.35062    
   3889000   299.15704      0.013605706    8.1411868      742.21687     -18.896688      723.32019    
   3890000   299.01006      0.013605706    7.4955996      741.85219     -18.550979      723.30121    
   3891000   304.98216      0.013605706    7.9696073      756.66914     -16.250149      740.41899    
   3892000   313.90534      0.013605706    6.9812698      778.8078      -19.638403      759.1694     
   3893000   290.87631      0.013605706    6.3799574      721.67213     -16.335274      705.33686    
   3894000   294.09264      0.013605706    8.5485644      729.65196     -16.884998      712.76696    
   3895000   297.86845      0.013605706    10.318512      739.01984     -16.220909      722.79893    
   3896000   307.03298      0.013605706    8.6348333      761.75729     -22.122363      739.63493    
   3897000   306.5415       0.013605706    5.1381815      760.53791     -23.018541      737.51937    
   3898000   296.48074      0.013605706    6.4278237      735.57688     -25.656338      709.92054    
   3899000   298.92987      0.013605706    10.006014      741.65324     -28.582269      713.07097    
   3900000   299.4932       0.013605706    9.1776731      743.05087     -26.775732      716.27514    
   3901000   299.63825      0.013605706    4.173592       743.41077     -27.235096      716.17567    
   3902000   289.13119      0.013605706    7.7744672      717.34245     -29.613406      687.72904    
   3903000   304.20453      0.013605706    7.9931869      754.73982     -30.534931      724.20489    
   3904000   308.2845       0.013605706    6.6758772      764.86234     -30.37432       734.48802    
   3905000   287.52861      0.013605706    5.8819695      713.3664      -27.670112      685.69629    
   3906000   304.31635      0.013605706    8.9201955      755.01726     -26.988253      728.02901    
   3907000   321.43168      0.013605706    11.215924      797.48087     -24.894791      772.58608    
   3908000   305.43006      0.013605706    5.7315825      757.78039     -27.797826      729.98256    
   3909000   291.31336      0.013605706    6.1182145      722.75648     -23.066036      699.69045    
   3910000   298.21101      0.013605706    14.058372      739.86974     -23.464948      716.40479    
   3911000   320.78464      0.013605706    9.9105292      795.87553     -24.679297      771.19623    
   3912000   297.70056      0.013605706   -1.0367828      738.60329     -22.52636       716.07693    
   3913000   278.20824      0.013605706    12.598441      690.24231     -22.598401      667.64391    
   3914000   304.06632      0.013605706    8.9995524      754.39691     -22.760179      731.63673    
   3915000   306.49845      0.013605706   -4.524908       760.4311      -22.61494       737.81616    
   3916000   300.60064      0.013605706    7.975531       745.79847     -22.756645      723.04182    
   3917000   297.03157      0.013605706    17.344035      736.94352     -21.249079      715.69445    
   3918000   304.19287      0.013605706   -3.5036625      754.71089     -26.955119      727.75577    
   3919000   306.57646      0.013605706    3.2568778      760.62465     -28.279873      732.34477    
   3920000   299.89863      0.013605706    6.4354879      744.05677     -29.387746      714.66902    
   3921000   292.16865      0.013605706    13.85625       724.87848     -25.368508      699.50997    
   3922000   298.7896       0.013605706    17.877501      741.30523     -24.039734      717.2655     
   3923000   293.23835      0.013605706    2.4410862      727.53242     -23.297722      704.2347     
   3924000   294.3915       0.013605706    13.495763      730.39343     -20.392926      710.0005     
   3925000   309.26181      0.013605706    19.250451      767.28707     -19.237545      748.04952    
   3926000   299.72792      0.013605706    3.7184472      743.63322     -23.95015       719.68307    
   3927000   284.33366      0.013605706    6.5254189      705.43965     -24.051821      681.38783    
   3928000   309.45455      0.013605706    9.6435655      767.76526     -24.36243       743.40284    
   3929000   309.98389      0.013605706    0.45313077     769.07858     -21.367739      747.71084    
   3930000   296.14415      0.013605706    3.3655101      734.74181     -24.132706      710.60911    
   3931000   294.52923      0.013605706    17.171113      730.73513     -22.479821      708.25531    
   3932000   300.38773      0.013605706    12.145129      745.27023     -24.595169      720.67506    
   3933000   298.59185      0.013605706   -2.6891367      740.81461     -22.922362      717.89225    
   3934000   303.21511      0.013605706    6.8354699      752.28504     -20.18195       732.10309    
   3935000   302.06131      0.013605706    10.194409      749.42244     -25.781333      723.64111    
   3936000   305.63312      0.013605706    5.6022164      758.28419     -24.591879      733.69231    
   3937000   297.4324       0.013605706    0.57342023     737.93799     -25.882447      712.05554    
   3938000   298.35384      0.013605706    3.6380485      740.22411     -23.419807      716.8043     
   3939000   309.37988      0.013605706    9.6513691      767.58001     -19.190223      748.38978    
   3940000   301.39285      0.013605706    6.7940953      747.76397     -19.335659      728.42831    
   3941000   280.24191      0.013605706    7.3099134      695.28791     -16.27429       679.01362    
   3942000   291.20812      0.013605706    7.100592       722.49538     -18.129046      704.36634    
   3943000   308.77534      0.013605706    9.680624       766.08014     -18.690834      747.38931    
   3944000   313.32363      0.013605706    6.0742941      777.36455     -20.953787      756.41077    
   3945000   290.39664      0.013605706    7.5024437      720.48207     -19.320296      701.16177    
   3946000   315.49737      0.013605706    9.4195614      782.75767     -19.429094      763.32858    
   3947000   310.54633      0.013605706    7.8648792      770.47402     -17.162156      753.31186    
   3948000   295.13137      0.013605706    6.7153827      732.22907     -18.323963      713.90511    
   3949000   286.59327      0.013605706    9.0805312      711.0458      -19.862137      691.18366    
   3950000   298.03144      0.013605706    6.9568301      739.42421     -22.727535      716.69668    
   3951000   295.49883      0.013605706    6.4376467      733.14073     -21.464518      711.67621    
   3952000   294.19491      0.013605706    7.4556448      729.90569     -24.853862      705.05183    
   3953000   314.62319      0.013605706    10.202783      780.58882     -28.809423      751.77939    
   3954000   295.15788      0.013605706    7.0483309      732.29484     -25.266034      707.0288     
   3955000   289.98668      0.013605706    6.5270954      719.46495     -20.403917      699.06103    
   3956000   301.16761      0.013605706    7.8022664      747.20515     -18.313708      728.89144    
   3957000   303.75431      0.013605706    7.5811581      753.62281     -17.404211      736.2186     
   3958000   313.18606      0.013605706    5.7011397      777.02326     -19.811284      757.21197    
   3959000   286.28539      0.013605706    6.3739391      710.28193     -15.725076      694.55686    
   3960000   295.61776      0.013605706    11.304077      733.43582     -18.716343      714.71948    
   3961000   320.79987      0.013605706    8.3063957      795.91332     -19.567916      776.3454     
   3962000   296.1818       0.013605706    6.2504091      734.83521     -23.575606      711.2596     
   3963000   281.65049      0.013605706    6.1208486      698.78264     -23.66949       675.11315    
   3964000   298.71219      0.013605706    6.7327055      741.11318     -23.112824      718.00035    
   3965000   306.65791      0.013605706    6.4852242      760.82672     -22.86738       737.95934    
   3966000   292.81045      0.013605706    10.668918      726.47079     -25.824509      700.64628    
   3967000   291.69884      0.013605706    7.0351394      723.71286     -20.904481      702.80838    
   3968000   313.67249      0.013605706    7.1007098      778.23009     -17.859391      760.3707     
   3969000   319.48525      0.013605706    7.4944221      792.65172     -18.472045      774.17967    
   3970000   311.41587      0.013605706    8.1743799      772.63137     -21.163146      751.46822    
   3971000   298.3942       0.013605706    7.7193548      740.32423     -20.965458      719.35878    
   3972000   287.29823      0.013605706    1.8180046      712.79483     -21.513098      691.28173    
   3973000   306.28917      0.013605706    8.0651914      759.91187     -23.626404      736.28547    
   3974000   288.86319      0.013605706    6.3830538      716.67753     -21.532566      695.14496    
   3975000   289.22719      0.013605706    6.4874695      717.58064     -22.121226      695.45941    
   3976000   306.55526      0.013605706    8.0781077      760.57206     -21.736781      738.83528    
   3977000   307.42267      0.013605706    7.4861121      762.72412     -23.932124      738.79199    
   3978000   297.86443      0.013605706    7.0493807      739.00987     -27.883849      711.12602    
   3979000   290.43115      0.013605706    7.4668141      720.56768     -22.507503      698.06018    
   3980000   295.91818      0.013605706    8.0185575      734.18116     -22.160397      712.02076    
   3981000   319.31558      0.013605706    6.9879053      792.23077     -19.23959       772.99118    
   3982000   303.67126      0.013605706    6.2950802      753.41677     -20.544768      732.872      
   3983000   304.05532      0.013605706    7.4177393      754.36962     -23.107023      731.2626     
   3984000   299.24139      0.013605706    8.5574767      742.42615     -21.204363      721.22178    
   3985000   294.35853      0.013605706    7.3328204      730.31162     -20.086949      710.22467    
   3986000   299.3187       0.013605706    8.4621525      742.61795     -20.787332      721.83062    
   3987000   301.36668      0.013605706    4.6472512      747.69904     -20.132305      727.56674    
   3988000   300.98164      0.013605706    8.2600611      746.74375     -16.072603      730.67115    
   3989000   298.05807      0.013605706    8.8144385      739.49028     -17.510418      721.97986    
   3990000   303.63961      0.013605706    6.9510945      753.33825     -20.325114      733.01314    
   3991000   291.00425      0.013605706    7.2904924      721.98956     -22.300103      699.68946    
   3992000   303.52042      0.013605706    11.268602      753.04252     -20.145517      732.89701    
   3993000   296.06487      0.013605706    7.1522862      734.54511     -18.444438      716.10067    
   3994000   304.4373       0.013605706    6.3131993      755.31733     -22.925644      732.39169    
   3995000   300.04559      0.013605706    7.4020569      744.42137     -24.572179      719.84919    
   3996000   305.87039      0.013605706    8.0351006      758.87288     -22.84955       736.02332    
   3997000   291.83343      0.013605706    6.8899522      724.04679     -27.335059      696.71174    
   3998000   286.88045      0.013605706    6.4587614      711.7583      -23.242924      688.51537    
   3999000   300.13921      0.013605706    5.6992604      744.65366     -23.034259      721.6194     
   4000000   289.99007      0.013605706    13.270409      719.47335     -23.042316      696.43104    
Loop time of 12402.9 on 1 procs for 4000000 steps with 1500 atoms

Performance: 6.966 ns/day, 3.445 hours/ns, 322.504 timesteps/s, 483.757 katom-step/s
99.3% CPU use with 1 MPI tasks x 1 OpenMP threads

MPI task timing breakdown:
Section |  min time  |  avg time  |  max time  |%varavg| %total
---------------------------------------------------------------
Pair    | 814.57     | 814.57     | 814.57     |   0.0 |  6.57
Bond    | 184.41     | 184.41     | 184.41     |   0.0 |  1.49
Kspace  | 10523      | 10523      | 10523      |   0.0 | 84.85
Neigh   | 0.045741   | 0.045741   | 0.045741   |   0.0 |  0.00
Comm    | 34.037     | 34.037     | 34.037     |   0.0 |  0.27
Output  | 0.13245    | 0.13245    | 0.13245    |   0.0 |  0.00
Modify  | 824.05     | 824.05     | 824.05     |   0.0 |  6.64
Other   |            | 22.35      |            |       |  0.18

Nlocal:           1500 ave        1500 max        1500 min
Histogram: 1 0 0 0 0 0 0 0 0 0
Nghost:           1056 ave        1056 max        1056 min
Histogram: 1 0 0 0 0 0 0 0 0 0
Neighs:              0 ave           0 max           0 min
Histogram: 1 0 0 0 0 0 0 0 0 0

Total # of neighbors = 0
Ave neighs/atom = 0
Ave special neighs/atom = 2
Neighbor list builds = 17833
Dangerous builds = 0
write_data	last_conf.data pair ij
System init for write_data ...
PPPM initialization ...
  using 12-bit tables for long-range coulomb (src/kspace.cpp:342)
  G vector (1/distance) = 0.16705332
  grid = 30 30 30
  stencil order = 5
  estimated absolute RMS force accuracy = 0.028224335
  estimated relative force accuracy = 8.4996747e-05
  using double precision FFTW3
  3d grid and FFT values/proc = 42875 27000
Generated 1 of 1 mixed pair_coeff terms from arithmetic mixing rule
Total wall time: 3:26:43
