LAMMPS data file via write_data, version 29 Aug 2024, timestep = 0, units = real

1500 atoms
2 atom types
1000 bonds
1 bond types
500 angles
1 angle types

0 148 xlo xhi
0 148 ylo yhi
0 148 zlo zhi

Masses

1 12.0107
2 15.9994

PairIJ Coeffs # lj/cut/coul/long/gpu

1 1 0.053649 2.8 12
1 2 0.0917684 2.925 12
2 2 0.156973 3.05 12

Bond Coeffs # harmonic

1 0 1.16

Angle Coeffs # harmonic

1 0 180

Atoms # full

1 1 1 0.7 10.904147367414156 42.00480412971452 14.743008111949548 0 0 0
2 1 2 -0.35 9.89648662317194 42.24249015534808 14.21982059515299 0 0 0
3 1 2 -0.35 11.911808111656372 41.767118104080964 15.266195628746106 0 0 0
4 2 1 0.7 33.737337536056216 35.43196849684789 101.09452652237124 0 0 0
5 2 2 -0.35 34.0846573921858 35.9325355876601 100.10740874564249 0 0 0
6 2 2 -0.35 33.390017679926636 34.931401406035675 102.08164429909999 0 0 0
7 3 1 0.7 55.70726149329323 23.943917779225817 13.426115448319406 0 0 0
8 3 2 -0.35 55.244652638340256 22.880154564389308 13.425182667643373 0 0 0
9 3 2 -0.35 56.16987034824621 25.007680994062326 13.427048228995439 0 0 0
10 4 1 0.7 100.72233990427215 16.36677110212239 92.3219133710125 0 0 0
11 4 2 -0.35 99.63728058651314 16.56581504027355 92.68056053415427 0 0 0
12 4 2 -0.35 101.80739922203115 16.16772716397123 91.96326620787073 0 0 0
13 5 1 0.7 22.398026607184686 79.63318695297147 30.97311859157547 0 0 0
14 5 2 -0.35 22.225367832140265 79.91816540249171 32.08423345094385 0 0 0
15 5 2 -0.35 22.570685382229108 79.34820850345123 29.862003732207096 0 0 0
16 6 1 0.7 49.204168608972886 98.46181100721556 59.65759827180654 0 0 0
17 6 2 -0.35 48.11669442458347 98.63537065240581 59.29307536738487 0 0 0
18 6 2 -0.35 50.2916427933623 98.2882513620253 60.02212117622821 0 0 0
19 7 1 0.7 113.2541542524724 34.570521303718216 126.75155159214118 0 0 0
20 7 2 -0.35 112.23278165290724 34.83319741996554 126.26843745364933 0 0 0
21 7 2 -0.35 114.27552685203757 34.30784518747089 127.23466573063304 0 0 0
22 8 1 0.7 1.3276091168297497 113.1264265576035 107.85115364186986 0 0 0
23 8 2 -0.35 0.8527157171000462 114.14385883942688 108.14254309054093 0 0 0
24 8 2 -0.35 1.802502516559453 112.1089942757801 107.55976419319879 0 0 0
25 9 1 0.7 98.33925890658948 71.92444304932116 118.11432994069267 0 0 0
26 9 2 -0.35 97.9985019035407 72.63646162447488 117.26432157984598 0 0 0
27 9 2 -0.35 98.68001590963826 71.21242447416743 118.96433830153936 0 0 0
28 10 1 0.7 23.5433132217933 88.46531868002626 28.611055201204053 0 0 0
29 10 2 -0.35 23.549892531767647 87.505776705809 29.262849580126968 0 0 0
30 10 2 -0.35 23.536733911818956 89.42486065424352 27.959260822281138 0 0 0
31 11 1 0.7 14.004766636530295 58.11286016465763 50.84078740088306 0 0 0
32 11 2 -0.35 13.61035566497775 58.08368208580997 51.9312866559189 0 0 0
33 11 2 -0.35 14.39917760808284 58.1420382435053 49.750288145847215 0 0 0
34 12 1 0.7 77.11384664155256 16.42050457392843 107.42037401507626 0 0 0
35 12 2 -0.35 76.19450786292579 17.103912865210017 107.6030467210852 0 0 0
36 12 2 -0.35 78.03318542017932 15.737096282646842 107.23770130906732 0 0 0
37 13 1 0.7 110.22607138670332 53.58179632275449 117.25079653470348 0 0 0
38 13 2 -0.35 110.31104156352546 52.43095376474602 117.13272250823138 0 0 0
39 13 2 -0.35 110.14110120988119 54.73263888076296 117.36887056117558 0 0 0
40 14 1 0.7 14.137358761456497 66.5887037993356 128.34475543366034 0 0 0
41 14 2 -0.35 13.436339355947439 66.2478718535911 129.20382782750136 0 0 0
42 14 2 -0.35 14.838378166965555 66.9295357450801 127.48568303981932 0 0 0
43 15 1 0.7 138.30457352954176 144.96731100835245 89.59611737988708 0 0 0
44 15 2 -0.35 137.51793645232794 144.97342597651266 88.74361241455436 0 0 0
45 15 2 -0.35 139.09121060675557 144.96119604019225 90.44862234521979 0 0 0
46 16 1 0.7 89.94480376222394 30.316831697857396 118.99034588923229 0 0 0
47 16 2 -0.35 88.79527645860304 30.166656374461848 118.94991878850644 0 0 0
48 16 2 -0.35 91.09433106584484 30.467007021252943 119.03077298995814 0 0 0
49 17 1 0.7 94.74336032697157 19.657015411023526 39.458013072357524 0 0 0
50 17 2 -0.35 93.77163385699427 20.228704180867467 39.73099588862951 0 0 0
51 17 2 -0.35 95.71508679694887 19.085326641179584 39.18503025608554 0 0 0
52 18 1 0.7 130.82570711282347 99.65944522417125 60.295882646132206 0 0 0
53 18 2 -0.35 130.010068575935 100.2812306776162 59.753926349899096 0 0 0
54 18 2 -0.35 131.64134564971192 99.03765977072631 60.837838942365316 0 0 0
55 19 1 0.7 36.89963354398479 52.14097375243016 25.345857093737393 0 0 0
56 19 2 -0.35 36.719892905476804 52.45259235418477 24.243048338825986 0 0 0
57 19 2 -0.35 37.07937418249278 51.82935515067555 26.4486658486488 0 0 0
58 20 1 0.7 43.82017444438309 37.67188674661884 7.400550422910857 0 0 0
59 20 2 -0.35 44.74063357081397 37.607194870189296 8.103522654008309 0 0 0
60 20 2 -0.35 42.899715317952214 37.73657862304838 6.697578191813406 0 0 0
61 21 1 0.7 61.050957862777146 147.44879969556294 59.97648332639434 0 0 0
62 21 2 -0.35 61.8605945339062 146.72032921052917 60.375756682878 0 0 0
63 21 2 -0.35 60.24132119164809 0.1772701805967074 59.577209969910676 0 1 0
64 22 1 0.7 144.7552667096049 77.76758832939322 51.85705211193163 0 0 0
65 22 2 -0.35 143.8299616970751 77.08321492745976 51.71198771067058 0 0 0
66 22 2 -0.35 145.68057172213472 78.45196173132668 52.00211651319268 0 0 0
67 23 1 0.7 137.47484523499145 111.72386450121358 66.99067189683703 0 0 0
68 23 2 -0.35 138.23748398023793 112.32357604159876 66.3548038188698 0 0 0
69 23 2 -0.35 136.71220648974497 111.12415296082841 67.62653997480426 0 0 0
70 24 1 0.7 76.22257014001839 132.73634328913704 95.72166052633975 0 0 0
71 24 2 -0.35 75.40313242485846 133.47622010346035 96.0776157631326 0 0 0
72 24 2 -0.35 77.04200785517833 131.99646647481373 95.3657052895469 0 0 0
73 25 1 0.7 33.94846619197561 31.871288534193898 48.746394196872785 0 0 0
74 25 2 -0.35 32.90464552504742 31.387922275561774 48.59674301809503 0 0 0
75 25 2 -0.35 34.9922868589038 32.354654792826025 48.89604537565054 0 0 0
76 26 1 0.7 100.64726684086364 86.6137943950546 138.04239768257477 0 0 0
77 26 2 -0.35 99.56620069744625 86.91070272007657 137.74450266736085 0 0 0
78 26 2 -0.35 101.72833298428102 86.31688607003262 138.3402926977887 0 0 0
79 27 1 0.7 30.57785103403863 65.94232908726778 68.72496970962965 0 0 0
80 27 2 -0.35 29.731166412974545 65.86809251479477 67.93553061523349 0 0 0
81 27 2 -0.35 31.424535655102716 66.01656565974079 69.5144088040258 0 0 0
82 28 1 0.7 68.56590974543519 59.245091529211535 136.25333145831402 0 0 0
83 28 2 -0.35 67.73561301613141 59.79964384162786 136.84382199515704 0 0 0
84 28 2 -0.35 69.39620647473897 58.69053921679521 135.662840921471 0 0 0
85 29 1 0.7 5.74181988357651 6.7667832704106265 65.3264257914044 0 0 0
86 29 2 -0.35 4.5824472087349655 6.791577094587314 65.35541315267542 0 0 0
87 29 2 -0.35 6.901192558418055 6.741989446233939 65.29743843013338 0 0 0
88 30 1 0.7 77.23827613389038 35.70698229582374 135.25144590961347 0 0 0
89 30 2 -0.35 76.31845064455406 35.75601660785221 134.5463808733146 0 0 0
90 30 2 -0.35 78.1581016232267 35.657947983795275 135.95651094591233 0 0 0
91 31 1 0.7 39.05140287384922 104.92810078381007 106.58987349578638 0 0 0
92 31 2 -0.35 39.36358301548317 103.94255877143212 106.06370764645041 0 0 0
93 31 2 -0.35 38.73922273221527 105.91364279618801 107.11603934512235 0 0 0
94 32 1 0.7 64.00384368188858 48.600761501398296 20.99855400109596 0 0 0
95 32 2 -0.35 63.21247240742448 47.753306753222 20.964613527520616 0 0 0
96 32 2 -0.35 64.79521495635268 49.44821624957459 21.032494474671307 0 0 0
97 33 1 0.7 90.6970964198453 94.0995283397378 2.772805973315987 0 0 0
98 33 2 -0.35 89.55596490775362 93.93616257811208 2.9021524075142553 0 0 0
99 33 2 -0.35 91.83822793193697 94.26289410136353 2.6434595391177185 0 0 0
100 34 1 0.7 130.54999352179001 53.74112072481826 131.01602202049273 0 0 0
101 34 2 -0.35 129.55137589851202 53.68871310596443 130.42813063259467 0 0 0
102 34 2 -0.35 131.548611145068 53.79352834367209 131.60391340839078 0 0 0
103 35 1 0.7 42.282098421026994 87.22816220076204 103.72210820751363 0 0 0
104 35 2 -0.35 41.135886860301135 87.40636429142634 103.71554520962665 0 0 0
105 35 2 -0.35 43.428309981752854 87.04996011009774 103.7286712054006 0 0 0
106 36 1 0.7 113.47264368155628 6.722355916501188 58.635888635476995 0 0 0
107 36 2 -0.35 112.49201088429979 6.167507722599947 58.91175599249744 0 0 0
108 36 2 -0.35 114.45327647881277 7.27720411040243 58.36002127845655 0 0 0
109 37 1 0.7 109.38029646192692 46.64263560559723 114.77662327269866 0 0 0
110 37 2 -0.35 108.22108979862297 46.64005660132284 114.73380668142062 0 0 0
111 37 2 -0.35 110.53950312523087 46.645214609871616 114.8194398639767 0 0 0
112 38 1 0.7 18.70734424642629 62.3347496866876 116.13798415853549 0 0 0
113 38 2 -0.35 18.75033235540399 62.94403187139359 115.15181620028171 0 0 0
114 38 2 -0.35 18.664356137448586 61.72546750198161 117.12415211678926 0 0 0
115 39 1 0.7 107.09975250582198 49.54036535021866 124.92044112501686 0 0 0
116 39 2 -0.35 106.31116564141857 48.82579435832478 124.45879293122185 0 0 0
117 39 2 -0.35 107.8883393702254 50.254936342112536 125.38208931881188 0 0 0
118 40 1 0.7 9.853988158448594 3.9789790455154046 126.7008179774046 0 0 0
119 40 2 -0.35 9.602309898957229 4.019559936427255 127.83245892973541 0 0 0
120 40 2 -0.35 10.10566641793996 3.9383981546035547 125.56917702507378 0 0 0
121 41 1 0.7 36.64774623915914 110.67104154763325 132.19529107222115 0 0 0
122 41 2 -0.35 36.126713808419076 111.42376282163632 131.48287554054016 0 0 0
123 41 2 -0.35 37.168778669899204 109.91832027363019 132.90770660390214 0 0 0
124 42 1 0.7 30.257050820746016 2.2531442783089095 128.59588553784224 0 0 0
125 42 2 -0.35 29.114430490604306 2.086663795233497 128.70680456191755 0 0 0
126 42 2 -0.35 31.399671150887727 2.419624761384322 128.48496651376692 0 0 0
127 43 1 0.7 67.0482345144489 7.67748434267821 127.47934739267423 0 0 0
128 43 2 -0.35 68.1532940864564 7.735250649846203 127.13134395006085 0 0 0
129 43 2 -0.35 65.94317494244139 7.619718035510217 127.8273508352876 0 0 0
130 44 1 0.7 97.39162867581082 129.10315435244848 8.715201601719112 0 0 0
131 44 2 -0.35 96.77084982015641 129.98547615916408 8.288889695051575 0 0 0
132 44 2 -0.35 98.01240753146523 128.2208325457329 9.14151350838665 0 0 0
133 45 1 0.7 104.39332009311454 146.5308049761368 23.239233931172283 0 0 0
134 45 2 -0.35 103.2713555037137 146.29881165874443 23.420822919869043 0 0 0
135 45 2 -0.35 105.51528468251537 146.7627982935292 23.057644942475523 0 0 0
136 46 1 0.7 9.804681212550348 63.27713933367149 118.88078101672268 0 0 0
137 46 2 -0.35 9.496932340102102 62.93441018934169 119.9454064743996 0 0 0
138 46 2 -0.35 10.112430084998593 63.619868478001294 117.81615555904575 0 0 0
139 47 1 0.7 29.286548058170148 119.01321366569643 35.08207935983412 0 0 0
140 47 2 -0.35 28.562938120415573 119.16147342576026 35.97651085610906 0 0 0
141 47 2 -0.35 30.01015799592472 118.86495390563259 34.18764786355918 0 0 0
142 48 1 0.7 140.50780073204442 26.606903470403935 74.22662707894419 0 0 0
143 48 2 -0.35 139.49775238474663 26.041925935855346 74.30538443781575 0 0 0
144 48 2 -0.35 141.5178490793422 27.171881004952525 74.14786972007263 0 0 0
145 49 1 0.7 34.921315814797445 102.55489930070699 32.192546982407826 0 0 0
146 49 2 -0.35 35.101487586013334 101.66416488416316 31.4716237326501 0 0 0
147 49 2 -0.35 34.741144043581556 103.44563371725083 32.91347023216555 0 0 0
148 50 1 0.7 120.13713332830794 128.79984887167805 91.05998629287815 0 0 0
149 50 2 -0.35 119.4673412129169 128.00722885642688 91.57837999807069 0 0 0
150 50 2 -0.35 120.80692544369897 129.59246888692923 90.54159258768561 0 0 0
151 51 1 0.7 125.189624403226 94.01734501962426 101.51774482499704 0 0 0
152 51 2 -0.35 124.36571463656492 94.57228364567679 102.11675719358004 0 0 0
153 51 2 -0.35 126.0135341698871 93.46240639357173 100.91873245641403 0 0 0
154 52 1 0.7 64.737273725093 91.35949763812101 127.07680389987156 0 0 0
155 52 2 -0.35 64.68612726578885 90.20065748801713 127.08537980844537 0 0 0
156 52 2 -0.35 64.78842018439715 92.5183377882249 127.06822799129776 0 0 0
157 53 1 0.7 139.843145141305 103.74038991319965 124.73327114653459 0 0 0
158 53 2 -0.35 138.8034737798852 103.66254522072347 124.22472059437999 0 0 0
159 53 2 -0.35 140.8828165027248 103.81823460567583 125.2418216986892 0 0 0
160 54 1 0.7 120.08815980706743 45.7018773824451 139.45316675466168 0 0 0
161 54 2 -0.35 119.36794953187264 46.571345778019655 139.71947835523676 0 0 0
162 54 2 -0.35 120.80837008226221 44.83240898687054 139.1868551540866 0 0 0
163 55 1 0.7 61.373645598708485 94.86157749353981 82.532933923664 0 0 0
164 55 2 -0.35 60.55040183716484 94.69465571305459 83.33293819132707 0 0 0
165 55 2 -0.35 62.19688936025213 95.02849927402504 81.73292965600093 0 0 0
166 56 1 0.7 75.02045502095505 56.78753719142989 124.13757636218219 0 0 0
167 56 2 -0.35 73.88139903538992 56.73265881530873 123.92511501138503 0 0 0
168 56 2 -0.35 76.15951100652019 56.84241556755105 124.35003771297934 0 0 0
169 57 1 0.7 24.245919196049645 57.16392800638635 86.13800333539862 0 0 0
170 57 2 -0.35 23.137577121064858 57.23168349691181 85.80246341478995 0 0 0
171 57 2 -0.35 25.35426127103443 57.096172515860886 86.47354325600729 0 0 0
172 58 1 0.7 133.42205804466366 76.52955666209084 112.25881976087523 0 0 0
173 58 2 -0.35 133.79510583665407 75.52090200623344 112.69361986449559 0 0 0
174 58 2 -0.35 133.04901025267324 77.53821131794824 111.82401965725487 0 0 0
175 59 1 0.7 29.98372102993714 144.39935015346825 15.878029340821332 0 0 0
176 59 2 -0.35 29.727683972716274 143.34258571335536 15.473932887678577 0 0 0
177 59 2 -0.35 30.239758087158005 145.45611459358113 16.282125793964084 0 0 0
178 60 1 0.7 18.039131184126777 79.67781161874431 40.979876235583745 0 0 0
179 60 2 -0.35 17.01932345636679 79.4125439236193 40.49487597957961 0 0 0
180 60 2 -0.35 19.058938911886763 79.94307931386933 41.46487649158788 0 0 0
181 61 1 0.7 104.7798914559092 131.6356994657012 97.20092004034711 0 0 0
182 61 2 -0.35 103.70951604960952 131.9303883267915 97.53715651180451 0 0 0
183 61 2 -0.35 105.85026686220887 131.34101060461091 96.86468356888972 0 0 0
184 62 1 0.7 31.863118113886152 59.42614008459549 71.13640179631133 0 0 0
185 62 2 -0.35 32.427170909388906 60.237251202024495 71.74430244532283 0 0 0
186 62 2 -0.35 31.299065318383395 58.61502896716648 70.52850114729983 0 0 0
187 63 1 0.7 45.5049906044756 86.37708942144042 7.74190614919267 0 0 0
188 63 2 -0.35 44.44112180721048 86.80227883168321 7.560254979025623 0 0 0
189 63 2 -0.35 46.568859401740724 85.95190001119762 7.923557319359717 0 0 0
190 64 1 0.7 26.21664948119626 27.227830465523446 2.146634052575861 0 0 0
191 64 2 -0.35 26.256896810868323 28.134969878541945 1.424776561236523 0 0 0
192 64 2 -0.35 26.176402151524197 26.320691052504948 2.8684915439151992 0 0 0
193 65 1 0.7 114.47852164249798 40.513245463610275 106.11650689789862 0 0 0
194 65 2 -0.35 114.74852989477992 39.89943914093453 107.0630465652887 0 0 0
195 65 2 -0.35 114.20851339021604 41.12705178628602 105.16996723050853 0 0 0
196 66 1 0.7 100.13143298222285 0.9941322193453704 132.38021053764047 0 0 0
197 66 2 -0.35 99.38862557965162 1.2209597788767965 131.5185920484456 0 0 0
198 66 2 -0.35 100.87424038479408 0.7673046598139444 133.24182902683532 0 0 0
199 67 1 0.7 30.19850612347876 54.29241730752047 72.65768749670018 0 0 0
200 67 2 -0.35 29.802280622168173 53.30107246726105 72.20399072593561 0 0 0
201 67 2 -0.35 30.59473162478935 55.283762147779896 73.11138426746474 0 0 0
202 68 1 0.7 9.753757039901686 95.39456962765874 12.531732060262808 0 0 0
203 68 2 -0.35 9.09905908124987 96.06027265751025 11.84339343793825 0 0 0
204 68 2 -0.35 10.408454998553502 94.72886659780723 13.220070682587366 0 0 0
205 69 1 0.7 16.820736837024214 26.12401986593568 98.40188678093342 0 0 0
206 69 2 -0.35 15.718368067926107 26.180230016992436 98.75857083697645 0 0 0
207 69 2 -0.35 17.92310560612232 26.067809714878923 98.0452027248904 0 0 0
208 70 1 0.7 88.51112714806159 58.51397747104707 132.41935588811495 0 0 0
209 70 2 -0.35 87.39735677921647 58.59209377674677 132.10469192725125 0 0 0
210 70 2 -0.35 89.62489751690671 58.43586116534737 132.73401984897865 0 0 0
211 71 1 0.7 96.11441154783331 122.91488443450764 46.4626907699102 0 0 0
212 71 2 -0.35 97.15773271841577 122.475808442028 46.716251823391346 0 0 0
213 71 2 -0.35 95.07109037725085 123.35396042698729 46.20912971642906 0 0 0
214 72 1 0.7 50.44376988077712 64.44038622101786 133.57121664731355 0 0 0
215 72 2 -0.35 49.28652541186939 64.45866904714126 133.64900467628595 0 0 0
216 72 2 -0.35 51.601014349684846 64.42210339489446 133.49342861834114 0 0 0
217 73 1 0.7 67.43819139871663 49.68283823024614 3.4621357468246186 0 0 0
218 73 2 -0.35 67.38630425818414 50.77681300279529 3.8444012588360916 0 0 0
219 73 2 -0.35 67.49007853924911 48.58886345769699 3.0798702348131455 0 0 0
220 74 1 0.7 24.115496881359952 85.15608501674424 58.32087642062496 0 0 0
221 74 2 -0.35 22.966146136164618 85.2517002298068 58.19657599604833 0 0 0
222 74 2 -0.35 25.264847626555287 85.06046980368168 58.445176845201594 0 0 0
223 75 1 0.7 142.9700014437409 116.81426495351562 77.35107373695405 0 0 0
224 75 2 -0.35 142.43271157487595 116.12194104671075 76.5910689969152 0 0 0
225 75 2 -0.35 143.50729131260584 117.50658886032049 78.1110784769929 0 0 0
226 76 1 0.7 7.496296986702968 42.263455516781406 69.89687054506358 0 0 0
227 76 2 -0.35 8.453711218628703 42.592124886374336 70.46338129871036 0 0 0
228 76 2 -0.35 6.538882754777234 41.934786147188476 69.3303597914168 0 0 0
229 77 1 0.7 80.7032508834746 107.53759855755493 8.41895682570476 0 0 0
230 77 2 -0.35 79.88372036483199 108.14310577930858 7.864582643930803 0 0 0
231 77 2 -0.35 81.5227814021172 106.93209133580127 8.973331007478716 0 0 0
232 78 1 0.7 9.407369619890755 45.66120150390137 47.81367607033517 0 0 0
233 78 2 -0.35 9.543322208436928 45.15394308837236 46.77936190455062 0 0 0
234 78 2 -0.35 9.271417031344582 46.168459919430376 48.84799023611972 0 0 0
235 79 1 0.7 112.453714123207 49.573268740239214 85.92771720044674 0 0 0
236 79 2 -0.35 111.54077703411882 48.94945166581912 85.57700630949932 0 0 0
237 79 2 -0.35 113.3666512122952 50.19708581465931 86.27842809139415 0 0 0
238 80 1 0.7 3.1429879083963987 136.19777641827136 108.02826188692276 0 0 0
239 80 2 -0.35 4.078097257327421 135.60466198732115 108.37378435701756 0 0 0
240 80 2 -0.35 2.2078785594653763 136.79089084922157 107.68273941682797 0 0 0
241 81 1 0.7 114.99753351090362 31.54571775698369 52.87834162492228 0 0 0
242 81 2 -0.35 114.25352978358276 32.38150507670538 53.184148769909285 0 0 0
243 81 2 -0.35 115.74153723822448 30.709930437262003 52.57253447993527 0 0 0
244 82 1 0.7 134.2876900687291 121.20698512960551 53.79907327974172 0 0 0
245 82 2 -0.35 134.56308891653086 120.16728742926959 54.23356627916251 0 0 0
246 82 2 -0.35 134.01229122092732 122.24668282994143 53.36458028032093 0 0 0
247 83 1 0.7 69.02461261908738 72.66428900168476 120.70525131593703 0 0 0
248 83 2 -0.35 68.14133495737013 72.71291291946044 119.95488054962783 0 0 0
249 83 2 -0.35 69.90789028080462 72.6156650839091 121.45562208224624 0 0 0
250 84 1 0.7 57.15886695364437 1.0768899009921076 43.288565974351286 0 0 0
251 84 2 -0.35 58.30997336387655 0.9335546209447028 43.28556100910678 0 0 0
252 84 2 -0.35 56.00776054341219 1.2202251810395124 43.29157093959579 0 0 0
253 85 1 0.7 130.92833092200027 48.4578060584412 134.3464242212225 0 0 0
254 85 2 -0.35 131.8343085369197 47.77770625320574 134.09688701721558 0 0 0
255 85 2 -0.35 130.02235330708083 49.13790586367666 134.5959614252294 0 0 0
256 86 1 0.7 72.35188608632976 50.14945294435576 1.8556357872931453 0 0 0
257 86 2 -0.35 71.7165354306784 50.4645932039861 2.7735770496424967 0 0 0
258 86 2 -0.35 72.9872367419811 49.83431268472542 0.9376945249437938 0 0 0
259 87 1 0.7 107.67067703589362 25.068942264220183 125.71263474864541 0 0 0
260 87 2 -0.35 107.35724160502046 24.559903435492103 126.70673620298521 0 0 0
261 87 2 -0.35 107.98411246676677 25.577981092948264 124.71853329430562 0 0 0
262 88 1 0.7 4.252220483614234 131.06966810443888 55.91183130438991 0 0 0
263 88 2 -0.35 4.256871210112773 130.81081107390762 54.781091984967624 0 0 0
264 88 2 -0.35 4.247569757115696 131.32852513497014 57.04257062381219 0 0 0
265 89 1 0.7 58.148732881131 61.7535331685811 115.63196434249727 0 0 0
266 89 2 -0.35 57.37263822102559 62.24619798870747 114.92446278520872 0 0 0
267 89 2 -0.35 58.924827541236404 61.26086834845473 116.33946589978582 0 0 0
268 90 1 0.7 38.424704351660196 80.0060383528499 81.48659634845637 0 0 0
269 90 2 -0.35 39.178842225900816 79.23028365175645 81.90502281794323 0 0 0
270 90 2 -0.35 37.67056647741958 80.78179305394335 81.06816987896951 0 0 0
271 91 1 0.7 101.22482850645895 25.69270805534567 101.34428619469715 0 0 0
272 91 2 -0.35 100.2188105128427 25.49421567254619 100.80194997933724 0 0 0
273 91 2 -0.35 102.2308465000752 25.891200438145148 101.88662241005706 0 0 0
274 92 1 0.7 109.41807427509598 89.57434153816399 19.958231922219618 0 0 0
275 92 2 -0.35 108.53209458389392 89.2818441282218 20.647496205317637 0 0 0
276 92 2 -0.35 110.30405396629803 89.86683894810618 19.2689676391216 0 0 0
277 93 1 0.7 70.00391674507591 103.82873449094069 129.5405892401657 0 0 0
278 93 2 -0.35 68.84492072251705 103.78154617505157 129.55066309425865 0 0 0
279 93 2 -0.35 71.16291276763478 103.8759228068298 129.53051538607275 0 0 0
280 94 1 0.7 108.68335946494871 25.22252739277786 43.01789041749104 0 0 0
281 94 2 -0.35 108.77281452322086 24.560230145043537 43.966025507123874 0 0 0
282 94 2 -0.35 108.59390440667656 25.884824640512182 42.0697553278582 0 0 0
283 95 1 0.7 21.68424677182187 71.1354940101204 30.24782809347279 0 0 0
284 95 2 -0.35 20.533355002005543 70.99680022529213 30.290397662639702 0 0 0
285 95 2 -0.35 22.835138541638194 71.27418779494866 30.20525852430588 0 0 0
286 96 1 0.7 143.2467669971505 32.412921108497734 123.96507052144273 0 0 0
287 96 2 -0.35 142.6285862169188 32.74804702749593 124.88764471432248 0 0 0
288 96 2 -0.35 143.8649477773822 32.07779518949954 123.04249632856298 0 0 0
289 97 1 0.7 84.94025388776338 130.84709163887754 15.06917461523282 0 0 0
290 97 2 -0.35 84.93225623927286 131.30855932526993 14.004945498907638 0 0 0
291 97 2 -0.35 84.94825153625389 130.38562395248516 16.133403731558 0 0 0
292 98 1 0.7 39.61775821802102 3.662370279274122 133.45728376016825 0 0 0
293 98 2 -0.35 39.32630780996203 3.078613338996719 134.41638985144294 0 0 0
294 98 2 -0.35 39.90920862608 4.246127219551526 132.49817766889356 0 0 0
295 99 1 0.7 76.56815714788071 21.017184431206985 107.81873529582225 0 0 0
296 99 2 -0.35 75.4708555303025 20.741532630494547 107.56271724016167 0 0 0
297 99 2 -0.35 77.66545876545892 21.292836231919424 108.07475335148283 0 0 0
298 100 1 0.7 145.48411688463955 43.55248013676725 126.53365864722694 0 0 0
299 100 2 -0.35 145.21652636495836 44.66935365766604 126.37059776261056 0 0 0
300 100 2 -0.35 145.75170740432074 42.43560661586846 126.69671953184333 0 0 0
301 101 1 0.7 39.20088394321543 101.25643362163399 112.87987880263472 0 0 0
302 101 2 -0.35 38.32974784012301 101.16106564879016 112.11986114517892 0 0 0
303 101 2 -0.35 40.07202004630785 101.35180159447782 113.63989646009053 0 0 0
304 102 1 0.7 108.12303588172561 79.86406416253377 63.326379704906785 0 0 0
305 102 2 -0.35 109.21835631255249 80.24591318851004 63.31835006143953 0 0 0
306 102 2 -0.35 107.02771545089874 79.48221513655749 63.33440934837404 0 0 0
307 103 1 0.7 58.46370036828504 27.41208976666075 138.99270826717498 0 0 0
308 103 2 -0.35 57.43759718892179 26.87241124676737 138.9545066904231 0 0 0
309 103 2 -0.35 59.489803547648286 27.951768286554127 139.03090984392685 0 0 0
310 104 1 0.7 18.447846410073268 140.95461410142232 136.19920260468461 0 0 0
311 104 2 -0.35 17.288251552019673 140.97645421685849 136.177690409692 0 0 0
312 104 2 -0.35 19.607441268126863 140.93277398598616 136.22071479967724 0 0 0
313 105 1 0.7 131.9981769341967 121.3597330438717 105.03326835158899 0 0 0
314 105 2 -0.35 131.11823373476545 122.00579179537444 104.64095717996443 0 0 0
315 105 2 -0.35 132.87812013362793 120.71367429236896 105.42557952321354 0 0 0
316 106 1 0.7 98.14118515613545 146.898919168347 142.13446240785274 0 0 0
317 106 2 -0.35 97.0111560826696 146.82034535016027 141.88454152393646 0 0 0
318 106 2 -0.35 99.2712142296013 146.97749298653372 142.384383291769 0 0 0
319 107 1 0.7 133.9096887809735 132.13934182195894 125.91800166383294 0 0 0
320 107 2 -0.35 134.60868129415064 131.22186378165904 126.04146628261016 0 0 0
321 107 2 -0.35 133.21069626779638 133.05681986225883 125.79453704505572 0 0 0
322 108 1 0.7 51.853964039987865 85.57362007609271 119.83261889025225 0 0 0
323 108 2 -0.35 53.00501684451869 85.61794665874407 119.96941287861489 0 0 0
324 108 2 -0.35 50.70291123545704 85.52929349344134 119.69582490188961 0 0 0
325 109 1 0.7 42.825688469608174 47.34610870450088 98.04899654632854 0 0 0
326 109 2 -0.35 41.67778080899137 47.44730617059883 97.91607899461839 0 0 0
327 109 2 -0.35 43.973596130224976 47.24491123840293 98.18191409803869 0 0 0
328 110 1 0.7 77.48495414363451 37.624292065214505 95.47674006013047 0 0 0
329 110 2 -0.35 78.25619692120718 38.389508465310946 95.88322307215613 0 0 0
330 110 2 -0.35 76.71371136606184 36.85907566511806 95.0702570481048 0 0 0
331 111 1 0.7 61.5701906129579 142.1936319834523 92.37274588289334 0 0 0
332 111 2 -0.35 60.73133884616764 142.4863900453812 93.11854775371995 0 0 0
333 111 2 -0.35 62.409042379748165 141.90087392152338 91.62694401206673 0 0 0
334 112 1 0.7 136.7400537881721 46.08401780858823 50.08730894238097 0 0 0
335 112 2 -0.35 135.86482352865522 45.3691973642239 50.349232070693034 0 0 0
336 112 2 -0.35 137.615284047689 46.79883825295256 49.82538581406891 0 0 0
337 113 1 0.7 141.40139459697593 97.23899137472688 79.72803503448517 0 0 0
338 113 2 -0.35 140.40924342603043 97.81575328918207 79.89709640803177 0 0 0
339 113 2 -0.35 142.39354576792144 96.66222946027169 79.55897366093858 0 0 0
340 114 1 0.7 145.08482459238024 140.6469241346451 144.85393098036477 0 0 0
341 114 2 -0.35 144.0021670230597 140.38455485864495 144.53048863526422 0 0 0
342 114 2 -0.35 146.16748216170078 140.90929341064526 145.1773733254653 0 0 0
343 115 1 0.7 108.01798699051979 90.3073496661649 55.62583923322421 0 0 0
344 115 2 -0.35 108.93161187153892 90.44169611209091 54.923813158744196 0 0 0
345 115 2 -0.35 107.10436210950066 90.17300322023888 56.32786530770423 0 0 0
346 116 1 0.7 135.47999279921873 32.23897646937471 12.477520780860225 0 0 0
347 116 2 -0.35 135.7090720617272 31.163944123606193 12.10680775567765 0 0 0
348 116 2 -0.35 135.25091353671027 33.31400881514323 12.8482338060428 0 0 0
349 117 1 0.7 141.691763917772 93.47616599382653 33.92185824267653 0 0 0
350 117 2 -0.35 141.88228787991486 93.36448382873044 32.7830748067903 0 0 0
351 117 2 -0.35 141.50123995562913 93.58784815892261 35.06064167856275 0 0 0
352 118 1 0.7 28.671484664395212 141.64275449032093 9.7747188237378 0 0 0
353 118 2 -0.35 27.516892827493905 141.71554688957835 9.859683267896619 0 0 0
354 118 2 -0.35 29.82607650129652 141.5699620910635 9.68975437957898 0 0 0
355 119 1 0.7 3.6992705611974332 13.640322045255603 0.8926146109088392 0 0 0
356 119 2 -0.35 4.696366284984553 14.066938342353513 1.3041952866650115 0 0 0
357 119 2 -0.35 2.702174837410314 13.213705748157693 0.4810339351526669 0 0 0
358 120 1 0.7 54.173765544860515 2.477512470668886 51.55209453196829 0 0 0
359 120 2 -0.35 53.52171215915624 1.5930905603974255 51.923879774848324 0 0 0
360 120 2 -0.35 54.82581893056479 3.3619343809403466 51.18030928908825 0 0 0
361 121 1 0.7 44.05279879088178 99.38927835011354 107.60123035851923 0 0 0
362 121 2 -0.35 43.00745936730993 98.90849507370405 107.74858344010025 0 0 0
363 121 2 -0.35 45.098138214453634 99.87006162652304 107.45387727693821 0 0 0
364 122 1 0.7 41.87863563274901 114.22907961263745 140.14104959747803 0 0 0
365 122 2 -0.35 40.92549232872146 113.6388374016327 139.843170470422 0 0 0
366 122 2 -0.35 42.83177893677656 114.8193218236422 140.43892872453407 0 0 0
367 123 1 0.7 78.6205848132356 32.168956050727964 19.644344584850753 0 0 0
368 123 2 -0.35 78.61159293755979 32.7033375982975 18.61480317830655 0 0 0
369 123 2 -0.35 78.6295766889114 31.634574503158426 20.673885991394958 0 0 0
370 124 1 0.7 122.49943758663696 20.04751860725112 90.64523206960654 0 0 0
371 124 2 -0.35 121.347360058661 20.144658513129524 90.73947223205724 0 0 0
372 124 2 -0.35 123.65151511461292 19.950378701372717 90.55099190715583 0 0 0
373 125 1 0.7 110.41539387703658 127.52489135392238 122.84898537343787 0 0 0
374 125 2 -0.35 109.53642438019835 127.9045838508525 122.19412185223446 0 0 0
375 125 2 -0.35 111.2943633738748 127.14519885699227 123.50384889464128 0 0 0
376 126 1 0.7 122.89717137017156 44.75921847334095 132.18488144138124 0 0 0
377 126 2 -0.35 122.25303873323053 43.86366243441725 132.54359097174623 0 0 0
378 126 2 -0.35 123.5413040071126 45.65477451226465 131.82617191101625 0 0 0
379 127 1 0.7 3.3023852944850853 3.1896444108288944 32.35361280122475 0 0 0
380 127 2 -0.35 2.951923164153941 4.139428192185132 32.919905184959866 0 0 0
381 127 2 -0.35 3.6528474248162297 2.2398606294726564 31.78732041748963 0 0 0
382 128 1 0.7 15.170350184277796 112.07554715689065 57.72106586104309 0 0 0
383 128 2 -0.35 14.261911390661375 111.55153176792636 57.225337275644435 0 0 0
384 128 2 -0.35 16.078788977894217 112.59956254585494 58.21679444644174 0 0 0
385 129 1 0.7 125.9539265511343 63.64354491403491 61.05937018481054 0 0 0
386 129 2 -0.35 124.89342259117745 64.10835149720835 61.12927148061023 0 0 0
387 129 2 -0.35 127.01443051109115 63.178738330861485 60.98946888901085 0 0 0
388 130 1 0.7 140.83469611072667 44.737532982946156 63.71684437604474 0 0 0
389 130 2 -0.35 139.76485678323593 44.51133750801583 63.32970174021756 0 0 0
390 130 2 -0.35 141.9045354382174 44.963728457876485 64.10398701187192 0 0 0
391 131 1 0.7 109.00342818396325 76.6174878704443 110.11863855743717 0 0 0
392 131 2 -0.35 108.27340055874566 75.82813357130922 110.55404578849351 0 0 0