LAMMPS data file via write_data, version 29 Aug 2024, timestep = 4000000, units = real

1500 atoms
2 atom types
1000 bonds
1 bond types
500 angles
1 angle types

0 148 xlo xhi
0 148 ylo yhi
0 148 zlo zhi

Masses

1 12.0107
2 15.9994

PairIJ Coeffs # lj/cut/coul/long/gpu

1 1 0.053649 2.8 12
1 2 0.0917684 2.925 12
2 2 0.156973 3.05 12

Bond Coeffs # harmonic

1 0 1.16

Angle Coeffs # harmonic

1 0 180

Atoms # full

1186 396 1 0.7 24.87113866297715 0.4683412212234435 147.59738820530683 0 1 2
1187 396 2 -0.35 24.428214726899846 1.1814823319587124 0.39791811919360265 0 1 3
964 322 1 0.7 48.60085544691123 8.174688519281876 1.7667960060367949 9 -7 3
966 322 2 -0.35 47.65516643474183 8.39117420595405 1.1308665762022856 9 -7 3
965 322 2 -0.35 49.546544459080636 7.9582028326097 2.402725435871304 9 -7 3
1256 419 2 -0.35 101.35703532733578 15.1649234185255 4.086592032110364 -4 3 -2
1255 419 1 0.7 100.58506926918854 15.243002592494152 4.948898269860273 -4 3 -2
1257 419 2 -0.35 99.8131032110413 15.321081766462804 5.8112045076101815 -4 3 -2
345 115 2 -0.35 122.30303956017498 8.841625133235338 16.836964453925894 -9 2 0
343 115 1 0.7 121.76913992073021 8.715438555012302 15.81489394633905 -9 2 0
344 115 2 -0.35 121.23524028128544 8.589251976789265 14.792823438752206 -9 2 0
420 140 2 -0.35 114.042137253721 18.919578488755803 17.099450519244403 -5 -4 -4
418 140 1 0.7 114.08178381846196 20.04854996106687 16.835913871672982 -5 -4 -4
419 140 2 -0.35 114.12143038320292 21.177521433377933 16.572377224101558 -5 -4 -4
531 177 2 -0.35 103.68757364731803 8.124497225455322 19.40722336769781 7 8 0
529 177 1 0.7 104.26713574890914 7.63277236989821 18.53091609463234 7 8 0
530 177 2 -0.35 104.84669785050023 7.141047514341098 17.654608821566868 7 8 0
977 326 2 -0.35 108.69404158534952 6.595359119309799 0.8468580511219805 1 5 4
887 296 2 -0.35 133.4544672787246 4.08545714811923 24.69556166591424 -6 -3 0
886 296 1 0.7 133.0084918844081 4.7993451274785 23.8973950789217 -6 -3 0
888 296 2 -0.35 132.5625164900916 5.51323310683777 23.09922849192916 -6 -3 0
11 4 2 -0.35 123.3566466224246 13.184029529774257 19.804395532693658 0 -1 0
10 4 1 0.7 124.11954842350482 13.758916923301808 20.46248771975523 0 -1 0
12 4 2 -0.35 124.88245022458506 14.333804316829358 21.120579906816804 0 -1 0
155 52 2 -0.35 135.56844240664168 8.595396012420192 7.090723862220286 0 -8 0
154 52 1 0.7 135.4961588853608 8.576094076499167 5.933139080089636 0 -8 0
156 52 2 -0.35 135.42387536407998 8.556792140578143 4.775554297958986 0 -8 0
373 125 1 0.7 17.024836416054164 32.83356981749977 3.43867104027331 5 3 -5
375 125 2 -0.35 16.803613094863085 33.49248736741545 4.367373309342389 5 3 -5
374 125 2 -0.35 17.246059737245247 32.174652267584094 2.509968771204231 5 3 -5
612 204 2 -0.35 14.564640470963136 45.7163707553918 4.854907716045402 7 4 -2
389 130 2 -0.35 4.382889926762623 45.424971120307205 7.67359434322706 -7 -4 -1
610 204 1 0.7 14.576080468649737 46.421219666493556 3.93368182682488 7 4 -2
611 204 2 -0.35 14.587520466336342 47.126068577595305 3.012455937604364 7 4 -2
388 130 1 0.7 4.717903065549787 44.55026463570539 8.357885774297365 -7 -4 -1
390 130 2 -0.35 5.0529162043369515 43.67555815110357 9.042177205367672 -7 -4 -1
963 321 2 -0.35 18.548875094447965 47.68144610182805 16.95271123719634 0 2 1
961 321 1 0.7 19.479695287132678 47.02399473116483 17.169347947164738 0 2 1
962 321 2 -0.35 20.41051547981739 46.366543360501595 17.385984657133132 0 2 1
366 122 2 -0.35 23.55484705801895 34.946218595325085 11.065308246053066 -2 -3 3
364 122 1 0.7 24.33721668579798 34.564325614725156 10.298721318890188 -2 -3 3
1305 435 2 -0.35 26.71343205502195 46.79411079464822 14.093222638324525 3 1 -3
1303 435 1 0.7 26.052408512733155 46.09080563579676 14.736658517082764 3 1 -3
327 109 2 -0.35 50.163979936288804 28.404974276282534 5.76697028040158 5 -3 1
1357 453 1 0.7 38.19720371056668 27.290348650787816 11.838277292521612 9 2 3
1359 453 2 -0.35 37.990727756694675 26.171120209666828 12.062543600865993 9 2 3
1358 453 2 -0.35 38.403679664438684 28.409577091908805 11.61401098417723 9 2 3
365 122 2 -0.35 25.11958631357701 34.18243263412522 9.532134391727311 -2 -3 3
1304 435 2 -0.35 25.391384970444363 45.3875004769453 15.380094395841006 3 1 -3
325 109 1 0.7 50.52581709713714 28.281198856327922 6.8621202767240534 5 -3 1
326 109 2 -0.35 50.88765425798549 28.157423436373314 7.957270273046525 5 -3 1
417 139 2 -0.35 50.567379412570595 25.889210774032072 24.181327765806778 -6 0 3
478 160 1 0.7 97.43141194996709 40.61363770606288 7.033417349135987 -5 -4 0
479 160 2 -0.35 96.9255342595268 40.97106433461733 8.014199673362375 -5 -4 0
480 160 2 -0.35 97.93728964040737 40.25621107750844 6.052635024909598 -5 -4 0
347 116 2 -0.35 77.34569785301353 39.03762777358469 2.1224553468894154 -5 1 -2
346 116 1 0.7 78.21746596828443 39.73129038981619 2.4456465101951994 -5 1 -2
348 116 2 -0.35 79.08923408355533 40.42495300604769 2.7688376735009834 -5 1 -2
182 61 2 -0.35 97.82727929607069 47.515429754522344 4.714951862856089 -2 4 2
183 61 2 -0.35 96.10507144265306 46.18301378621097 3.914284767854171 -2 4 2
181 61 1 0.7 96.96617536936186 46.849221770366654 4.31461831535513 -2 4 2
821 274 2 -0.35 75.3401540002161 48.626575543466046 24.32620391706356 2 4 -1
1428 476 2 -0.35 79.22427092944801 48.05329921792491 6.754989730300002 7 -1 3
100 34 1 0.7 123.15071949270425 29.806886149594664 19.71241879004761 2 -4 1
101 34 2 -0.35 123.29545390365548 28.818984724209592 19.12190822789828 2 -4 1
457 153 1 0.7 116.17730877666324 36.14149363708799 7.96428485991366 -1 -2 4
459 153 2 -0.35 116.73841684011622 36.286891952248574 6.95948783012228 -1 -2 4
242 81 2 -0.35 118.20890387858023 35.064995552821685 12.574545237363385 -5 -2 5
458 153 2 -0.35 115.61620071321023 35.996095321927406 8.969081889705045 -1 -2 4
241 81 1 0.7 119.15888670189807 35.70768406344257 12.747992963545833 -5 -2 5
243 81 2 -0.35 120.10886952521591 36.350372574063464 12.921440689728282 -5 -2 5
102 34 2 -0.35 123.00598508175304 30.79478757497974 20.30292935219694 2 -4 1
247 83 1 0.7 135.9006190705547 44.63918562679472 19.176155945970113 4 0 -6
249 83 2 -0.35 135.6165990346617 45.75515515129869 19.036353801526037 4 0 -6
248 83 2 -0.35 136.1846391064477 43.52321610229075 19.315958090414185 4 0 -6
93 31 2 -0.35 135.71146992501062 47.706362292957955 21.410083065524738 -3 -11 -1
91 31 1 0.7 135.43747255404136 48.157388671095774 20.377077428112102 -3 -11 -1
1139 380 2 -0.35 144.7428119518059 33.37180080290345 26.353506513166792 3 -7 1
1167 389 2 -0.35 19.100501685463037 51.82940891105762 9.168550425154033 -6 -3 7
1165 389 1 0.7 20.172342827788455 51.44870381870035 8.940909922890524 -6 -3 7
107 36 2 -0.35 14.725984683114152 49.75846858292346 16.648589042499996 -1 -7 -7
1166 389 2 -0.35 21.244183970113877 51.06799872634309 8.713269420627014 -6 -3 7
443 148 2 -0.35 16.10551497631954 49.96513495273699 4.296439880441032 -3 -1 -3
108 36 2 -0.35 16.72179124953014 50.38287946512777 17.653211956650388 -1 -7 -7
106 36 1 0.7 15.723887966322145 50.070674024025614 17.15090049957519 -1 -7 -7
442 148 1 0.7 17.029553017122286 49.35520729110844 3.9504023871989866 -3 -1 -3
444 148 2 -0.35 17.95359105792504 48.745279629479896 3.6043648939569395 -3 -1 -3
736 246 1 0.7 10.915802212794187 61.974297641308894 17.330355437314992 -1 -3 2
737 246 2 -0.35 10.269641655021632 62.404709139586 18.192226933380926 -1 -3 2
738 246 2 -0.35 11.561962770566742 61.54388614303179 16.46848394124906 -1 -3 2
940 314 1 0.7 0.9104711316264963 66.20366594187414 20.172012409804058 5 2 -2
942 314 2 -0.35 1.4338582603598042 65.39759814935084 20.82156658562944 5 2 -2
941 314 2 -0.35 0.38708400289318845 67.00973373439744 19.522458233978675 5 2 -2
427 143 1 0.7 40.75946578917997 57.493782781873385 0.266352615613632 1 2 -3
429 143 2 -0.35 40.00170680021869 56.639751777760885 0.47137056278736955 1 2 -3
1355 452 2 -0.35 43.63901945801471 57.025399135929156 1.8440423774158252 -6 3 -3
1354 452 1 0.7 44.74750525369371 57.021668042092855 1.5022159306402956 -6 3 -3
1356 452 2 -0.35 45.85599104937271 57.017936948256555 1.160389483864766 -6 3 -3
822 274 2 -0.35 73.84651484734614 50.33822044378224 24.79706888309492 2 4 -1
1316 439 2 -0.35 49.71611210990517 62.42573893766881 18.149753308077575 2 -3 3
1315 439 1 0.7 49.83767255153355 63.42813457808482 18.720740207321526 2 -3 3
1317 439 2 -0.35 49.95923299316193 64.43053021850083 19.291727106565478 2 -3 3
1088 363 2 -0.35 74.22901300827897 55.43982833564674 23.599124387256484 1 0 12
1087 363 1 0.7 73.9050532761156 56.47951545865387 23.199498589555002 1 0 12
820 274 1 0.7 74.59333442378112 49.48239799362415 24.561636400079237 2 4 -1
1089 363 2 -0.35 73.58109354395222 57.519202581661006 22.79987279185352 1 0 12
948 316 2 -0.35 75.08620673929433 65.43856945261743 2.922267770034172 -5 3 1
946 316 1 0.7 75.77572014008797 66.14854849048149 3.52733060637473 -5 3 1
947 316 2 -0.35 76.46523354088161 66.85852752834555 4.132393442715288 -5 3 1
1427 476 2 -0.35 78.47281597415582 50.014694589354875 5.769777242000308 7 -1 3
1426 476 1 0.7 78.84854345180192 49.033996903639895 6.262383486150155 7 -1 3
812 271 2 -0.35 75.90388722515345 55.02265887595753 5.181884362933033 -2 -7 -10
813 271 2 -0.35 77.25817719017722 53.68333230989726 6.5064609141695895 -2 -7 -10
811 271 1 0.7 76.58103220766534 54.35299559292739 5.844172638551311 -2 -7 -10
1122 374 2 -0.35 89.10763179671001 65.41103309849784 147.54393511296107 4 -5 -3
1446 482 2 -0.35 99.6367901226372 50.73562788271525 2.580151434988869 -3 -1 -3
1444 482 1 0.7 100.34329727506483 51.386470984563395 1.9298815676676286 -3 -1 -3
1445 482 2 -0.35 101.04980442749246 52.03731408641155 1.2796117003463885 -3 -1 -3
229 77 1 0.7 122.15986019554552 52.72028611314384 4.710951346747966 -5 3 -11
231 77 2 -0.35 122.81437278518257 53.37134236067655 4.0085703728045186 -5 3 -11
230 77 2 -0.35 121.50534760590847 52.06922986561113 5.413332320691412 -5 3 -11
287 96 2 -0.35 137.4554075019294 64.88794550114069 9.126932389197902 3 9 4
286 96 1 0.7 138.44942952557523 64.29424977929062 9.19796482096371 3 9 4
288 96 2 -0.35 139.44345154922107 63.70055405744055 9.26899725272952 3 9 4
92 31 2 -0.35 135.1634751830721 48.6084150492336 19.344071790699463 -3 -11 -1
923 308 2 -0.35 137.24175097591416 60.614381155405695 11.280580384723045 9 -10 -10
922 308 1 0.7 137.45000992746867 59.52643640215744 10.936190456041068 9 -10 -10
924 308 2 -0.35 137.65826887902318 58.43849164890919 10.591800527359092 9 -10 -10
578 193 2 -0.35 40.754951558075334 79.17494017622323 11.024015538106527 -1 0 -2
577 193 1 0.7 40.147329716590974 78.73086647448967 11.906735338031384 -1 0 -2
579 193 2 -0.35 39.53970787510661 78.28679277275612 12.789455137956239 -1 0 -2
173 58 2 -0.35 57.8042605259858 82.902735377015 18.79735355087042 2 4 -1
172 58 1 0.7 58.12028350077388 83.8548914517902 18.21500632740897 2 4 -1
174 58 2 -0.35 58.43630647556197 84.8070475265654 17.632659103947525 2 4 -1
840 280 2 -0.35 72.72366834104842 87.92878457722368 4.516933610625787 1 -2 7
838 280 1 0.7 72.91614251822868 88.10360081515967 5.647417124027341 1 -2 7
1137 379 2 -0.35 62.01456416578397 83.61563412336238 6.274342843119513 0 0 -1
839 280 2 -0.35 73.10861669540894 88.27841705309565 6.777900637428895 1 -2 7
1135 379 1 0.7 62.81973562045913 82.78192097600474 6.227211998659492 0 0 -1
1136 379 2 -0.35 63.62490707513428 81.94820782864711 6.180081154199471 0 0 -1
1436 479 2 -0.35 74.83474471329293 74.7800574932017 5.304669403545081 0 0 1
1437 479 2 -0.35 75.18314930379243 75.07510828302613 7.579303280182255 0 0 1
1435 479 1 0.7 75.00894700854269 74.9275828881139 6.441986341863668 0 0 1
1070 357 2 -0.35 116.19031964631426 76.13698444825766 11.48221270624339 5 3 -4
1069 357 1 0.7 115.28294377907017 76.85873308861254 11.445498462548018 5 3 -4
1071 357 2 -0.35 114.37556791182607 77.58048172896743 11.408784218852649 5 3 -4
1276 426 1 0.7 119.36464026325528 91.73091465949263 0.3957088392224756 1 3 -2
1278 426 2 -0.35 119.84738962079697 90.71044767701142 0.6625424867619369 1 3 -2
384 128 2 -0.35 133.38996611194986 75.43776297939955 13.121616190087975 -1 1 4
382 128 1 0.7 132.89762069985323 74.752499041949 12.325620379033236 -1 1 4
383 128 2 -0.35 132.4052752877566 74.06723510449845 11.529624567978498 -1 1 4
46 16 1 0.7 144.86614319570572 77.02129158563409 20.924014977157064 -3 -4 -4
48 16 2 -0.35 144.21417036728323 77.02524636390298 19.964579835665887 -3 -4 -4
47 16 2 -0.35 145.51811602412818 77.01733680736518 21.88345011864824 -3 -4 -4
152 51 2 -0.35 21.820622122111157 108.39687061872705 22.603707527737182 1 4 0
151 51 1 0.7 22.864219980899303 108.33739414511317 23.10666484026123 1 4 0
153 51 2 -0.35 23.90781783968745 108.2779176714993 23.609622152785285 1 4 0
1453 485 1 0.7 10.043868877304302 103.45535816995432 15.386441993801286 4 -8 -2
1454 485 2 -0.35 10.95367397032854 103.2678823965058 16.081213558472744 4 -8 -2
1455 485 2 -0.35 9.134063784280062 103.64283394340283 14.691670429129827 4 -8 -2
722 241 2 -0.35 20.99975017712568 106.67633691820656 14.596224364553512 -3 4 5
723 241 2 -0.35 22.6931951374363 107.35824850924824 16.02788100928205 -3 4 5
721 241 1 0.7 21.84647265728099 107.0172927137274 15.312052686917783 -3 4 5
269 90 2 -0.35 10.23631585303838 104.61191008433946 19.81541574167499 0 -3 -4
268 90 1 0.7 10.827273914319502 104.78347831228423 20.79874321152624 0 -3 -4
270 90 2 -0.35 11.418231975600623 104.95504654022902 21.78207068137749 0 -3 -4
574 192 1 0.7 28.062743128636328 106.54728326750892 22.769231379535956 5 -1 2
576 192 2 -0.35 28.498547176874702 107.31464009840276 23.522118041405292 5 -1 2
575 192 2 -0.35 27.626939080397953 105.77992643661507 22.016344717666616 5 -1 2
201 67 2 -0.35 26.054524919076485 112.70805789679635 17.009816304275716 -4 -2 4
199 67 1 0.7 26.705524130937803 111.78396808612572 16.749320530852607 -4 -2 4
200 67 2 -0.35 27.356523342799125 110.8598782754551 16.488824757429498 -4 -2 4
303 101 2 -0.35 36.91316492228073 123.82027351481463 1.2402599953272966 -1 3 2
1023 341 2 -0.35 67.66016863696392 100.14709159924374 16.707370738535417 2 -1 -8
1022 341 2 -0.35 68.41931773885484 99.74825541649238 14.551675412097008 2 -1 -8
1021 341 1 0.7 68.03974318790938 99.94767350786806 15.629523075316209 2 -1 -8
323 108 2 -0.35 65.03620938950272 112.31240852249236 4.508601351749776 -1 -7 -3
322 108 1 0.7 65.48398402698427 112.9430981435786 3.6441197291101504 -1 -7 -3
324 108 2 -0.35 65.93175866446583 113.57378776466483 2.779638106470525 -1 -7 -3
1394 465 2 -0.35 79.04559953985253 115.78226888552983 17.573639747487476 5 -5 5
1395 465 2 -0.35 77.39327357847985 116.91776224921486 16.406217913528856 5 -5 5
1393 465 1 0.7 78.21943655916618 116.35001556737234 16.989928830508166 5 -5 5
275 92 2 -0.35 98.48232510854491 106.87903100405296 14.39788733126023 3 -1 0
274 92 1 0.7 98.20829657362339 106.51927813278277 15.466103710867412 3 -1 0
276 92 2 -0.35 97.93426803870184 106.1595252615126 16.53432009047459 3 -1 0
498 166 2 -0.35 102.56608618701242 99.6693267719402 3.239916059332895 -2 2 -1
496 166 1 0.7 102.59370725392658 100.7363815406819 3.6940429107402664 -2 2 -1
625 209 1 0.7 115.96834735717256 113.87873904316767 0.14017476868136383 2 -1 -7
626 209 2 -0.35 115.97630837011084 113.08397073039671 0.9850889366832053 2 -1 -7
1403 468 2 -0.35 116.49452398118156 114.23775170606697 16.804400700471824 1 -1 -2
476 159 2 -0.35 106.53335631030808 114.04804653210941 7.88171730909777 -2 -4 0
1402 468 1 0.7 116.08901733827503 114.22900720814319 17.89117937909789 1 -1 -2
475 159 1 0.7 106.8750595632908 112.94121619686562 7.820353672591722 -2 -4 0
477 159 2 -0.35 107.21676281627354 111.83438586162185 7.758990036085675 -2 -4 0
1404 468 2 -0.35 115.6835106953685 114.2202627102194 18.977958057723953 1 -1 -2
497 166 2 -0.35 102.62132832084075 101.80343630942362 4.148169762147637 -2 2 -1
1344 448 2 -0.35 108.55090295377128 121.46838002958934 147.85832565149997 -2 5 4
910 304 1 0.7 143.16500680248754 118.77764321274887 3.221840707411547 4 -3 -4
912 304 2 -0.35 144.0763195650958 118.83673809967648 2.5065667437820576 4 -3 -4
911 304 2 -0.35 142.2536940398793 118.71854832582126 3.9371146710410363 4 -3 -4
253 85 1 0.7 16.088305163195237 133.20683673482634 147.47883428232763 -2 1 4
254 85 2 -0.35 16.74771724789648 132.90099014173686 0.3828439969022801 -2 1 5
1011 337 2 -0.35 31.60301352018777 124.47109378276573 14.087786848328946 6 2 11
301 101 1 0.7 37.11005403910702 124.94602537995223 1.4390498688490239 -1 3 2
1009 337 1 0.7 30.595511406723578 123.9689609678132 13.807783049224433 6 2 11
1010 337 2 -0.35 29.58800929325939 123.46682815286067 13.527779250119922 6 2 11
713 238 2 -0.35 39.32611414424148 134.24482371724758 7.612476055432024 0 -5 -3
712 238 1 0.7 38.40776756798559 134.9082133335372 7.8617826595932865 0 -5 -3
714 238 2 -0.35 37.489420991729695 135.57160294982683 8.111089263754549 0 -5 -3
1269 423 2 -0.35 36.023367095129956 143.54183505276094 12.963132143929398 6 -2 5
1267 423 1 0.7 36.23895458397355 142.61965492447234 12.293277050911337 6 -2 5
1268 423 2 -0.35 36.45454207281715 141.69747479618374 11.623421957893276 6 -2 5
869 290 2 -0.35 43.68308322816011 140.13765229021482 23.8822688897407 2 2 1
868 290 1 0.7 44.3600646342979 140.83037650246388 23.243966969402184 2 2 1
870 290 2 -0.35 45.03704604043569 141.52310071471294 22.605665049063667 2 2 1
302 101 2 -0.35 37.30694315593331 126.07177724508982 1.6378397423707511 -1 3 2
669 223 2 -0.35 69.97621736000652 125.29946254200065 1.7998737327569174 1 2 -1
828 276 2 -0.35 64.9911727268878 143.75173537279304 3.4057254899983884 0 -6 1
826 276 1 0.7 63.91721232082137 143.4511094286945 3.08661251950586 0 -6 1
827 276 2 -0.35 62.843251914754944 143.15048348459598 2.767499549013331 0 -6 1
667 223 1 0.7 69.52490558463776 124.3251941099115 2.2388711173160614 1 2 -1
668 223 2 -0.35 69.07359380926901 123.35092567782233 2.6778685018752055 1 2 -1
523 175 1 0.7 62.17423059647206 136.76718703795743 21.862466766394512 6 -3 -3
524 175 2 -0.35 62.68921801730242 136.25165569723947 22.76502723147363 6 -3 -3
525 175 2 -0.35 61.6592431756417 137.2827183786754 20.95990630131539 6 -3 -3
161 54 2 -0.35 97.98434384148456 134.44009891135187 8.477895823611968 5 -1 -2
160 54 1 0.7 97.77959881673814 133.3641793462611 8.095696184291366 5 -1 -2
162 54 2 -0.35 97.57485379199171 132.28825978117032 7.7134965449707655 5 -1 -2
1052 351 2 -0.35 80.11922247274364 140.3251830079159 9.631336535480544 7 0 2
1051 351 1 0.7 79.89845594135568 139.19612935634484 9.482675879981228 7 0 2
1053 351 2 -0.35 79.67768940996771 138.06707570477377 9.334015224481911 7 0 2
314 105 2 -0.35 125.66916802237746 128.386452791603 15.416605706774401 -4 2 3
315 105 2 -0.35 126.72640003011986 126.47181454905038 14.6427705292595 -4 2 3
313 105 1 0.7 126.19778402624867 127.42913367032669 15.029688118016951 -4 2 3
237 79 2 -0.35 134.02982907251047 135.55382765600822 21.07418757890021 2 0 1
235 79 1 0.7 134.0214721511892 136.71099819272166 21.154726456662427 2 0 1
236 79 2 -0.35 134.0131152298679 137.86816872943507 21.23526533442464 2 0 1
221 74 2 -0.35 139.33785009210894 132.39536853143366 13.257080980108709 -5 -7 2
220 74 1 0.7 138.48189383223215 132.69811086537788 12.535079622481938 -5 -7 2
222 74 2 -0.35 137.62593757235535 133.0008531993221 11.813078264855164 -5 -7 2
76 26 1 0.7 18.5091234232795 21.729128426671203 38.25767319249806 -1 7 7
78 26 2 -0.35 17.961921873940906 20.863260502613844 37.71320721331355 -1 7 7
77 26 2 -0.35 19.056324972618096 22.59499635072856 38.80213917168257 -1 7 7
1476 492 2 -0.35 6.785599230111995 11.698982837932222 28.35301891642744 -1 2 -5
1474 492 1 0.7 7.512535374078675 12.461920149701996 27.868157595114454 -1 2 -5
1475 492 2 -0.35 8.239471518045356 13.22485746147177 27.383296273801463 -1 2 -5
1063 355 1 0.7 22.557031506529427 16.02444855088786 29.84012584439142 0 -1 9
1064 355 2 -0.35 22.521000254652368 16.527032962191086 30.884975430888364 0 -1 9
1065 355 2 -0.35 22.593062758406482 15.521864139584636 28.795276257894475 0 -1 9
1016 339 2 -0.35 12.051557823209217 18.201415179390267 36.36221758833998 2 0 13
1015 339 1 0.7 11.018037217974946 18.56124320500134 36.74687191437976 2 0 13
1017 339 2 -0.35 9.984516612740677 18.921071230612412 37.13152624041955 2 0 13
9 3 2 -0.35 9.296570418133006 147.89465328923876 35.34401289072382 0 3 -9
359 120 2 -0.35 51.920949180321436 5.7154456608294115 31.396456002372844 6 4 4
1336 446 1 0.7 61.36834401280407 14.685896239014129 26.45340380704939 -1 2 2
1337 446 2 -0.35 62.2022457054934 14.3273774649541 27.175672632056067 -1 2 2
360 120 2 -0.35 50.44909317582701 4.918318898945199 33.002889576323 6 4 4
358 120 1 0.7 51.18502117807422 5.316882279887306 32.19967278934792 6 4 4
1338 446 2 -0.35 60.53444232011474 15.044415013074156 25.731134982042718 -1 2 2
406 136 1 0.7 51.244200960994064 21.473875075220175 44.98861944295917 -6 -9 -2
407 136 2 -0.35 51.94621594209713 20.85505383686747 44.303174156103346 -6 -9 -2
1111 371 1 0.7 73.54968911246601 15.925599613155288 34.51377333482898 1 2 4
408 136 2 -0.35 50.542185979891 22.092696313572876 45.67406472981499 -6 -9 -2
1432 478 1 0.7 67.10179587164936 15.749705919375973 48.22676755788082 0 0 7
1434 478 2 -0.35 66.70726404606765 16.686320034847654 48.785962190635956 0 0 7
1433 478 2 -0.35 67.49632769723107 14.813091803904292 47.66757292512568 0 0 7
6 2 2 -0.35 72.90689189448581 5.813534093077553 42.094668432621674 4 -5 7
4 2 1 0.7 74.0425877122384 5.785868526598421 41.86008449035025 4 -5 7
1112 371 2 -0.35 73.12523193124784 16.377123012776384 33.53318028931572 1 2 4
1113 371 2 -0.35 73.9741462936842 15.474076213534191 35.494366380342235 1 2 4
5 2 2 -0.35 75.178283529991 5.758202960119288 41.62550054807883 4 -5 7
1034 345 2 -0.35 77.78436404182833 7.69926656951503 35.879790086392866 6 0 8
1033 345 1 0.7 76.83626523315925 8.366834109328412 35.847198234849486 6 0 8
1035 345 2 -0.35 75.8881664244902 9.034401649141794 35.814606383306106 6 0 8
690 230 2 -0.35 98.75837186041616 9.481316455293127 38.14872165250005 0 5 -3
689 230 2 -0.35 100.82224415679727 10.351029852239545 37.54338723963256 0 5 -3
688 230 1 0.7 99.79030800860671 9.916173153766337 37.846054446066304 0 5 -3
435 145 2 -0.35 137.1395918487452 17.24507368890824 44.75672439793828 -7 -1 -1
433 145 1 0.7 136.9239067399166 16.18910001048602 44.327772740627964 -7 -1 -1
434 145 2 -0.35 136.70822163108798 15.133126332063801 43.89882108331765 -7 -1 -1
1302 434 2 -0.35 136.21792650055193 9.52691961219442 28.039210883238752 -1 -4 -4
1300 434 1 0.7 136.1574934515316 8.520266631152833 27.465976531211346 -1 -4 -4
1301 434 2 -0.35 136.09706040251126 7.513613650111246 26.89274217918394 -1 -4 -4
1484 495 2 -0.35 9.59699540998826 40.93426242907566 49.90311066893827 2 2 -6
899 300 2 -0.35 7.101775136146229 43.91031583848122 36.643743169095025 0 3 -1
898 300 1 0.7 7.290444551264808 44.97558872425788 36.225177128154094 0 3 -1
900 300 2 -0.35 7.479113966383387 46.04086161003454 35.80661108721316 0 3 -1
1493 498 2 -0.35 14.975084140373806 45.130899662247025 30.836266254632267 1 4 3
1492 498 1 0.7 15.464560038910728 45.25046610751085 31.881118976272028 1 4 3
1494 498 2 -0.35 15.95403593744765 45.37003255277468 32.92597169791179 1 4 3
401 134 2 -0.35 12.41679587819381 47.02025073638539 49.26084255445748 -2 -7 -4
1190 397 2 -0.35 33.321947794810676 35.48498178431262 48.36927185395689 0 3 2
1189 397 1 0.7 33.95222342141717 34.511161877257265 48.36403514432277 0 3 2
1191 397 2 -0.35 34.58249904802367 33.5373419702019 48.358798434688644 0 3 2
1154 385 2 -0.35 47.97658471010518 34.46269222266915 36.047773808209975 6 1 -3
1153 385 1 0.7 48.55182382090828 35.056623309245495 35.23417327367219 6 1 -3
1155 385 2 -0.35 49.12706293171138 35.65055439582184 34.4205727391344 6 1 -3
1313 438 2 -0.35 41.77698525169789 34.13537060389476 36.96926354621336 -4 -5 0
1312 438 1 0.7 42.07475976187649 33.018183528105524 37.06319638805047 -4 -5 0
1314 438 2 -0.35 42.3725342720551 31.90099645231628 37.15712922988758 -4 -5 0
396 132 2 -0.35 65.24016232531856 42.77541814305812 46.08981556292641 -1 -4 1
394 132 1 0.7 64.58326402593498 43.219501363635395 46.936500107175014 -1 -4 1
395 132 2 -0.35 63.92636572655139 43.663584584212664 47.78318465142362 -1 -4 1
415 139 1 0.7 50.74064459040198 25.209701731778974 25.105365989934093 -6 0 3
416 139 2 -0.35 50.91390976823336 24.530192689525872 26.029404214061408 -6 0 3
889 297 1 0.7 55.4796139907125 44.3254770293191 38.451517839472224 -12 2 -4
891 297 2 -0.35 55.86498284591487 44.24242647180808 39.542477715149296 -12 2 -4
890 297 2 -0.35 55.09424513551014 44.408527586830125 37.36055796379515 -12 2 -4
197 66 2 -0.35 68.02194117541147 25.68584531742306 45.01327669981758 -2 7 1
198 66 2 -0.35 68.36951712753884 26.02421205881997 47.28199856594014 -2 7 1
196 66 1 0.7 68.19572915147515 25.855028688121514 46.14763763287886 -2 7 1
615 205 2 -0.35 75.9714115967497 44.080494440079 49.40225919789134 4 -1 -10
614 205 2 -0.35 75.79019894793868 42.089303474166144 48.22551771686162 4 -1 -10
613 205 1 0.7 75.88080527234419 43.08489895712257 48.81388845737648 4 -1 -10
980 327 2 -0.35 94.99050711957909 43.83231677678979 49.90112237801582 -2 0 3
20 7 2 -0.35 99.5551242200901 42.29186120093871 47.654472297484865 3 1 -3
19 7 1 0.7 99.24596464583273 42.574401319148194 48.73622616932737 3 1 -3
960 320 2 -0.35 112.22129862842505 28.5803459041318 34.95924563573462 -2 3 -4
958 320 1 0.7 111.5907581993536 29.042754247399902 34.10239250282168 -2 3 -4
959 320 2 -0.35 110.96021777028214 29.505162590668004 33.24553936990874 -2 3 -4
1140 380 2 -0.35 146.2696008758206 32.78026107067815 24.70991400688661 3 -7 1
1138 380 1 0.7 145.50620641381326 33.0760309367908 25.5317102600267 3 -7 1
545 182 2 -0.35 143.90058001124345 27.883338163660472 39.047039867376405 -8 1 -1
544 182 1 0.7 143.40915721970273 27.865840053111338 40.09765752194021 -8 1 -1
546 182 2 -0.35 142.91773442816202 27.848341942562207 41.148275176504015 -8 1 -1
1473 491 2 -0.35 139.04640420870572 36.800081091405545 36.925572942605406 5 1 -1
1472 491 2 -0.35 141.1966450274011 36.9882627170666 36.07501306971542 5 1 -1
1471 491 1 0.7 140.1215246180534 36.89417190423607 36.50029300616041 5 1 -1
1272 424 2 -0.35 10.281670686227157 52.9895143820744 29.77612091657099 0 5 6
1270 424 1 0.7 11.116452712810661 52.206473194133224 29.964762020467916 0 5 6
1271 424 2 -0.35 11.951234739394165 51.42343200619206 30.15340312436484 0 5 6
950 317 2 -0.35 6.858388879204477 73.46679611448593 43.67953101394545 -3 5 12
949 317 1 0.7 6.921070611812466 72.51580565202906 43.018253356139674 -3 5 12
951 317 2 -0.35 6.983752344420454 71.56481518957217 42.35697569833389 -3 5 12
1293 431 2 -0.35 1.59099170375637 56.44706888770282 47.7981438425275 6 -1 8
1291 431 1 0.7 2.248075050419515 56.135992561234325 48.70206474318679 6 -1 8
921 307 2 -0.35 46.514890865936806 49.84300835191337 29.10586143107824 -6 7 -1
919 307 1 0.7 46.712714232046565 50.15171166532425 28.005330568216976 -6 7 -1
920 307 2 -0.35 46.910537598156324 50.46041497873513 26.90479970535571 -6 7 -1
597 199 2 -0.35 39.719341599331294 61.10706195777983 31.102512646720864 -4 8 1
596 199 2 -0.35 38.15530382429568 62.65466846480859 31.838107601618564 -4 8 1
595 199 1 0.7 38.937322711813486 61.88086521129421 31.470310124169714 -4 8 1
1362 454 2 -0.35 36.270204057185914 73.79635341066172 44.61305266200146 -4 -1 -4
1360 454 1 0.7 36.43067320114441 73.40201307706266 45.692101018254924 -4 -1 -4
1361 454 2 -0.35 36.5911423451029 73.0076727434636 46.77114937450839 -4 -1 -4
1299 433 2 -0.35 32.93648876783649 54.38151204773152 39.303163920052974 -6 4 -4
1297 433 1 0.7 31.781433240248074 54.320538602840685 39.215249375135535 -6 4 -4
1298 433 2 -0.35 30.626377712659664 54.259565157949844 39.1273348302181 -6 4 -4
453 151 2 -0.35 43.60285376050732 58.04740246519039 36.58248256978858 1 0 4
451 151 1 0.7 44.535370838201324 58.17190888197558 37.2610914792397 1 0 4
452 151 2 -0.35 45.467887915895325 58.29641529876078 37.939700388690824 1 0 4
600 200 2 -0.35 56.653069085029536 56.086890301581505 32.53389943282821 1 1 5
598 200 1 0.7 56.28507413671237 56.84759739694458 33.328571964802656 1 1 5
599 200 2 -0.35 55.9170791883952 57.60830449230765 34.123244496777104 1 1 5
605 202 2 -0.35 78.74585029534371 65.99639459908822 28.57746665588393 4 -3 6
604 202 1 0.7 79.12262598302435 66.33356809557698 27.533457980422785 4 -3 6
606 202 2 -0.35 79.49940167070498 66.67074159206574 26.489449304961642 4 -3 6
1183 395 1 0.7 84.70474234386373 71.21869771233976 42.15197684451186 -7 0 0
1185 395 2 -0.35 84.48487944325927 70.74540049280995 41.11599902287484 -7 0 0
1184 395 2 -0.35 84.92460524446818 71.69199493186957 43.187954666148876 -7 0 0
468 156 2 -0.35 144.76668127670797 65.98224131851775 48.003555436670815 0 -5 2
467 156 2 -0.35 145.86221993651475 64.09966007385627 48.802356351869 0 -5 2
466 156 1 0.7 145.31445060661136 65.04095069618701 48.40295589426991 0 -5 2
321 107 2 -0.35 143.5803774877302 58.93487699142028 30.168401132311033 1 7 -1
319 107 1 0.7 144.2067134800045 59.552614546061314 29.412290334630896 1 7 -1
320 107 2 -0.35 144.83304947227882 60.170352100702345 28.65617953695076 1 7 -1
1245 415 2 -0.35 127.61953918171547 59.660669347904225 25.199711824520463 0 0 0
1243 415 1 0.7 127.52917969919027 60.671419410307884 25.76169000494072 0 0 0
1244 415 2 -0.35 127.43882021666506 61.682169472711536 26.323668185360976 0 0 0
1117 373 1 0.7 125.87002391390091 61.81508835139068 38.327421798282764 1 4 0
1119 373 2 -0.35 125.67028903026655 61.56363522173271 39.44208645630631 1 4 0
1118 373 2 -0.35 126.06975879753527 62.066541481048645 37.212757140259214 1 4 0
481 161 1 0.7 147.15379267616245 70.95598405986601 47.82734716481721 -3 -1 11
483 161 2 -0.35 0.3088357041075809 70.93822847585065 47.932989688599434 -2 -1 11
482 161 2 -0.35 145.9987496482173 70.97373964388137 47.72170464103499 -3 -1 11
926 309 2 -0.35 36.50823404353573 80.3770398682151 47.402490396747076 4 -6 -1
927 309 2 -0.35 35.13477000026621 78.58799338433805 46.859066804716655 4 -6 -1
925 309 1 0.7 35.82150202190097 79.48251662627658 47.130778600731865 4 -6 -1
1080 360 2 -0.35 27.01311630104192 97.25556258246992 44.51208691485019 -3 -3 -1