LAMMPS (29 Aug 2024 - Update 1)
  using 1 OpenMP thread(s) per MPI task
package gpu 1 gpuID 0
# GCMC for CO2 molecular fluid, rigid/small/nvt dynamics
# Rigid CO2 TraPPE model
# [Potoff and J.I. Siepmann, Vapor-liquid equilibria of
# mixtures containing alkanes, carbon dioxide and
# nitrogen AIChE J., 47,1676-1682 (2001)].

# global model settings

units           real
atom_style      full
boundary        p p p
pair_style      lj/cut/coul/long  12
pair_modify     mix arithmetic shift yes
kspace_style    pppm 1.0e-4
bond_style      harmonic
angle_style     harmonic
neigh_modify    one 4000

# box, start molecules on simple cubic lattice
region          mbox block 0 ${lbox} 0 ${lbox} 0 ${lbox} units box
region          mbox block 0 148 0 ${lbox} 0 ${lbox} units box
region          mbox block 0 148 0 148 0 ${lbox} units box
region          mbox block 0 148 0 148 0 148 units box
create_box      2 mbox                                       bond/types 1                                angle/types 1                               extra/bond/per/atom 2                       extra/angle/per/atom 1                      extra/special/per/atom 2
Created orthogonal box = (0 0 0) to (148 148 148)
  1 by 1 by 1 MPI processor grid
molecule        co2mol ../CO2.txt
Read molecule template co2mol:
# CO2 molecule file. TraPPE model.
  1 molecules
  0 fragments
  3 atoms with max type 2
  2 bonds with max type 1
  1 angles with max type 1
  0 dihedrals with max type 0
  0 impropers with max type 0
create_atoms   	0 random ${nmols} 34578 mbox mol co2mol 464563 overlap 1.2
create_atoms   	0 random 500 34578 mbox mol co2mol 464563 overlap 1.2
Created 1500 atoms
  using lattice units in orthogonal box = (0 0 0) to (148 148 148)
  create_atoms CPU = 0.013 seconds

# rigid CO2 TraPPE model

pair_coeff      1   1  0.053649   2.800
pair_coeff      2   2  0.156973   3.050
bond_coeff      1       0       1.16
angle_coeff     1       0       180

# masses

mass 1 12.0107
mass 2 15.9994

write_data init_conf.data  pair ij
System init for write_data ...
PPPM initialization ...
  using 12-bit tables for long-range coulomb (src/kspace.cpp:342)
  G vector (1/distance) = 0.16201075
  grid = 30 30 30
  stencil order = 5
  estimated absolute RMS force accuracy = 0.032622673
  estimated relative force accuracy = 9.8242209e-05
  using double precision FFTW3
  3d grid and FFT values/proc = 42875 27000
Generated 1 of 1 mixed pair_coeff terms from arithmetic mixing rule

# MD settings

group           co2 type 1 2
1500 atoms in group co2
velocity       	all create 300 54654
timestep        0.25

# rigid constraints with thermostat
fix             myrigidnvt co2 rigid/nvt molecule temp 300 300 $(100*dt)
fix             myrigidnvt co2 rigid/nvt molecule temp 300 300 25
  500 rigid bodies with 1500 atoms

thermo 1000
thermo_style custom step temp density press ke pe etotal


variable    mvol equal vol
variable    mden equal density
variable	mtmp equal temp
variable    mpre equal press

fix mydat all ave/time 1 4000 4000 v_mtmp v_mden v_mpre file statistics.dat ## every 1ps

run 4000000 ## 1ns

CITE-CITE-CITE-CITE-CITE-CITE-CITE-CITE-CITE-CITE-CITE-CITE-CITE

Your simulation uses code contributions which should be cited:

- GPU package (short-range, long-range and three-body potentials): doi:10.1016/j.cpc.2010.12.021, doi:10.1016/j.cpc.2011.10.012, doi:10.1016/j.cpc.2013.08.002, doi:10.1016/j.commatsci.2014.10.068, doi:10.1016/j.cpc.2016.10.020, doi:10.3233/APC200086

@Article{Brown11,
 author = {W. M. Brown and P. Wang and S. J. Plimpton and A. N. Tharrington},
 title = {Implementing Molecular Dynamics on Hybrid High Performance Computers---Short Range Forces},
 journal = {Comput.\ Phys.\ Commun.},
 year =    2011,
 volume =  182,
 pages =   {898--911},
 doi =     {10.1016/j.cpc.2010.12.021}
}

@Article{Brown12,
 author = {W. M. Brown and A. Kohlmeyer and S. J. Plimpton and A. N. Tharrington},
 title = {Implementing Molecular Dynamics on Hybrid High Performance Computers - Particle-Particle Particle-Mesh},
 journal = {Comput.\ Phys.\ Commun.},
 year =    2012,
 volume =  183,
 doi =     {10.1016/j.cpc.2011.10.012},
 pages =   {449--459}
}

@Article{Brown13,
 author = {W. M. Brown and Y. Masako},
 title = {Implementing Molecular Dynamics on Hybrid High Performance Computers---Three-Body Potentials},
 journal = {Comput.\ Phys.\ Commun.},
 year =    2013,
 volume =  184,
 pages =   {2785--2793},
 doi =     {10.1016/j.cpc.2013.08.002},
}

@Article{Trung15,
 author = {T. D. Nguyen and S. J. Plimpton},
 title = {Accelerating Dissipative Particle Dynamics Simulations for Soft Matter Systems},
 journal = {Comput.\ Mater.\ Sci.},
 year =    2015,
 doi =     {10.1016/j.commatsci.2014.10.068},
 volume =  100,
 pages =   {173--180}
}

@Article{Trung17,
 author = {T. D. Nguyen},
 title = {{GPU}-Accelerated {T}ersoff Potentials for Massively Parallel
    Molecular Dynamics Simulations},
 journal = {Comput.\ Phys.\ Commun.},
 year =    2017,
 doi =     {10.1016/j.cpc.2016.10.020},
 volume =  212,
 pages =   {113--122}
}

@inproceedings{Nikolskiy19,
 author = {V. Nikolskiy and V. Stegailov},
 title = {{GPU} Acceleration of Four-Site Water Models in {LAMMPS}},
 booktitle = {Proceedings of the International Conference on Parallel
    Computing (ParCo 2019), Prague, Czech Republic},
 doi =     {10.3233/APC200086},
 year =    2019
}

CITE-CITE-CITE-CITE-CITE-CITE-CITE-CITE-CITE-CITE-CITE-CITE-CITE

PPPM initialization ...
  using 12-bit tables for long-range coulomb (src/kspace.cpp:342)
  G vector (1/distance) = 0.16201075
  grid = 30 30 30
  stencil order = 5
  estimated absolute RMS force accuracy = 0.032622673
  estimated relative force accuracy = 9.8242209e-05
  using double precision FFTW3
  3d grid and FFT values/proc = 42875 27000
Generated 1 of 1 mixed pair_coeff terms from arithmetic mixing rule
Per MPI rank memory allocation (min/avg/max) = 11.38 | 11.38 | 11.38 Mbytes
   Step          Temp         Density         Press          KinEng         PotEng         TotEng    
         0   307.41471      0.011271465   -131.40286      762.70438      2218.1472      2980.8516    
      1000   316.83939      0.011271465   -2.807131       786.08726     -12.933931      773.15333    
      2000   295.62753      0.011271465    5.3373232      733.46005     -16.470318      716.98973    
      3000   292.52561      0.011271465    7.5938577      725.7641      -18.517269      707.24683    
      4000   300.16328      0.011271465    5.4286923      744.71336     -19.329478      725.38388    
      5000   312.47766      0.011271465    3.740564       775.26568     -21.886942      753.37874    
      6000   291.72706      0.011271465    4.8563521      723.78287     -24.615991      699.16688    
      7000   297.7422       0.011271465    15.062716      738.70661     -28.428721      710.27789    
      8000   314.072        0.011271465    5.4003257      779.22128     -26.852854      752.36842    
      9000   300.81869      0.011271465    5.9463148      746.33947     -26.70334       719.63613    
     10000   291.83166      0.011271465    5.9246055      724.0424      -25.711123      698.33128    
     11000   312.78551      0.011271465    6.4301719      776.02947     -31.944029      744.08544    
     12000   302.14224      0.011271465    5.7347583      749.62324     -31.993717      717.62952    
     13000   276.58078      0.011271465    5.3801505      686.20454     -29.240464      656.96407    
     14000   295.77579      0.011271465    8.5184761      733.82789     -32.711352      701.11654    
     15000   316.8279       0.011271465    5.9580442      786.05874     -30.835271      755.22347    
     16000   300.67369      0.011271465    0.78082829     745.97971     -32.543495      713.43622    
     17000   304.76771      0.011271465    10.369082      756.13709     -36.811916      719.32518    
     18000   306.94735      0.011271465    11.820715      761.54484     -41.49135       720.05349    
     19000   304.60732      0.011271465    8.1123962      755.73917     -42.562899      713.17627    
     20000   298.30862      0.011271465    6.2172065      740.11192     -46.029919      694.082      
     21000   298.55185      0.011271465    5.8672346      740.71537     -42.840426      697.87494    
     22000   301.38262      0.011271465    6.5774848      747.73859     -43.668269      704.07032    
     23000   296.33995      0.011271465    6.3166315      735.22758     -43.853363      691.37422    
     24000   276.6716       0.011271465    5.7229237      686.42988     -42.34864       644.08124    
     25000   293.37907      0.011271465    6.7535223      727.88157     -39.480602      688.40097    
     26000   299.65031      0.011271465    4.9694853      743.44067     -31.525844      711.91483    
     27000   295.99449      0.011271465    3.0576358      734.37048     -43.020008      691.35047    
     28000   298.57683      0.011271465    12.242865      740.77734     -45.833324      694.94402    
     29000   308.09403      0.011271465    3.882729       764.38978     -46.279137      718.11064    
     30000   287.03426      0.011271465   -0.66987806     712.13992     -45.875454      666.26447    
     31000   294.86651      0.011271465    7.5432614      731.57193     -49.116401      682.45553    
     32000   298.61281      0.011271465    10.446826      740.86661     -51.957567      688.90904    
     33000   307.43316      0.011271465    1.4951645      762.75014     -53.817824      708.93231    
     34000   289.52183      0.011271465    3.6309709      718.31164     -52.518777      665.79286    
     35000   285.76339      0.011271465    5.960856       708.98684     -46.829032      662.15781    
     36000   300.89569      0.011271465    6.0694608      746.5305      -51.686561      694.84394    
     37000   303.67365      0.011271465    2.6894542      753.4227      -51.978014      701.44468    
     38000   302.91111      0.011271465    5.942097       751.53081     -50.865109      700.6657     
     39000   308.18281      0.011271465    4.8902062      764.61004     -49.325666      715.28437    
     40000   303.50178      0.011271465    7.6024904      752.99627     -49.613488      703.38278    
     41000   289.97369      0.011271465    9.6463303      719.43271     -47.198844      672.23387    
     42000   307.24769      0.011271465   -2.890765       762.28998     -42.190048      720.09994    
     43000   307.30034      0.011271465    7.9842743      762.42061     -42.497453      719.92315    
     44000   281.54559      0.011271465    7.3675518      698.52238     -46.330948      652.19143    
     45000   292.86737      0.011271465    3.780943       726.61201     -47.930646      678.68137    
     46000   303.6966       0.011271465    5.6400936      753.47963     -46.592126      706.8875     
     47000   306.52708      0.011271465    3.9504795      760.50212     -47.202263      713.29986    
     48000   294.74505      0.011271465    7.4691913      731.2706      -46.255458      685.01514    
     49000   300.20916      0.011271465    3.7278953      744.82719     -44.556728      700.27046    
     50000   312.0787       0.011271465    3.1220848      774.27585     -44.380828      729.89502    
     51000   294.18776      0.011271465    9.0601463      729.88795     -45.888998      683.99895    
     52000   290.99158      0.011271465   -10.405018      721.95814     -47.466947      674.4912     
     53000   305.21612      0.011271465    9.889137       757.24961     -54.05839       703.19122    
     54000   299.29066      0.011271465    12.783465      742.54838     -53.074053      689.47433    
     55000   310.17615      0.011271465    2.2457468      769.55557     -51.792991      717.76258    
     56000   308.42327      0.011271465    2.6487843      765.20664     -51.966578      713.24006    
     57000   296.32291      0.011271465    7.3958771      735.18531     -51.708396      683.47691    
     58000   292.89455      0.011271465    6.0059066      726.67945     -51.13238       675.54707    
     59000   299.12684      0.011271465    2.3180648      742.14194     -51.38976       690.75218    
     60000   301.51496      0.011271465    3.9051615      748.06693     -49.302452      698.76448    
     61000   301.537        0.011271465    7.2248783      748.12161     -49.425469      698.69614    
     62000   313.18933      0.011271465    5.2783416      777.03137     -51.084298      725.94707    
     63000   311.31008      0.011271465    6.7376633      772.36888     -52.563846      719.80503    
     64000   292.53249      0.011271465    6.5109092      725.78118     -48.339855      677.44133    
     65000   300.6961       0.011271465    1.324257       746.03532     -57.062942      688.97238    
     66000   298.97739      0.011271465    4.196619       741.77114     -56.440224      685.33092    
     67000   307.11067      0.011271465    5.9074783      761.95003     -54.180073      707.76995    
     68000   292.50998      0.011271465    4.688026       725.72533     -53.510019      672.21532    
     69000   283.75621      0.011271465    3.7329554      704.00699     -53.73372       650.27327    
     70000   302.91972      0.011271465    1.4539959      751.55216     -48.964436      702.58773    
     71000   319.29678      0.011271465    6.4134548      792.18411     -49.296868      742.88724    
     72000   298.95243      0.011271465    6.1641251      741.70922     -47.422477      694.28674    
     73000   276.68988      0.011271465    5.5128137      686.47521     -52.279238      634.19598    
     74000   299.81282      0.011271465    5.9516391      743.84387     -53.632517      690.21135    
     75000   313.96428      0.011271465    7.6898782      778.95404     -56.812341      722.1417     
     76000   306.85904      0.011271465    5.1916919      761.32573     -50.401113      710.92461    
     77000   272.33419      0.011271465    1.6070732      675.66862     -51.769185      623.89944    
     78000   304.18303      0.011271465    7.974723       754.68649     -55.000236      699.68625    
     79000   313.28652      0.011271465    4.475299       777.27248     -54.609325      722.66316    
     80000   292.1781       0.011271465    5.3153417      724.90192     -51.723105      673.17882    
     81000   297.65119      0.011271465    7.0341645      738.48081     -51.191284      687.28953    
     82000   310.23398      0.011271465    6.3994357      769.69905     -49.858154      719.8409     
     83000   307.66506      0.011271465    4.7389375      763.32551     -52.823384      710.50212    
     84000   298.53756      0.011271465    6.4917801      740.67992     -46.992654      693.68727    
     85000   307.82762      0.011271465    8.1242107      763.72881     -50.916083      712.81273    
     86000   296.21136      0.011271465    7.8004521      734.90855     -51.929722      682.97882    
     87000   310.73444      0.011271465   -3.666076       770.9407      -51.856186      719.08451    
     88000   309.18228      0.011271465    3.6649208      767.08975     -49.527167      717.56258    
     89000   298.6317       0.011271465    8.7515432      740.91349     -52.894775      688.01872    
     90000   308.74429      0.011271465    6.3624993      766.00309     -55.882535      710.12056    
     91000   297.11583      0.011271465    8.4639091      737.15255     -51.874353      685.2782     
     92000   292.24561      0.011271465    6.2052175      725.06941     -50.862713      674.20669    
     93000   305.3031       0.011271465    4.0715147      757.4654      -50.822745      706.64265    
     94000   306.7724       0.011271465    5.7621983      761.11079     -55.928701      705.18209    
     95000   296.78031      0.011271465    11.986156      736.32014     -57.471696      678.84844    
     96000   297.22767      0.011271465    9.9651798      737.43004     -51.357792      686.07225    
     97000   306.27429      0.011271465   -4.7047363      759.87495     -55.973254      703.9017     
     98000   307.65962      0.011271465    9.4243119      763.312       -52.954049      710.35795    
     99000   297.97321      0.011271465    9.5693519      739.27975     -51.797398      687.48235    
    100000   280.0379       0.011271465    2.4164437      694.78174     -52.995939      641.7858     
    101000   300.54487      0.011271465   -0.44366345     745.6601      -50.388398      695.2717     
    102000   298.07773      0.011271465    7.2046544      739.53906     -53.038386      686.50068    
    103000   285.67467      0.011271465    6.2150975      708.76674     -48.023779      660.74296    
    104000   300.03758      0.011271465    4.2996691      744.4015      -48.35481       696.04669    
    105000   299.99344      0.011271465    3.3076026      744.292       -50.145198      694.14681    
    106000   313.25145      0.011271465    7.1392635      777.18548     -50.275096      726.91038    
    107000   301.3389       0.011271465    9.0515245      747.63011     -45.966218      701.66389    
    108000   295.23673      0.011271465    3.0652315      732.49045     -46.017262      686.47319    
    109000   309.50077      0.011271465    6.0150345      767.87994     -45.923769      721.95618    
    110000   295.5176       0.011271465    7.0638164      733.1873      -47.968834      685.21847    
    111000   296.47712      0.011271465    5.9458908      735.56791     -47.859041      687.70887    
    112000   316.31002      0.011271465    6.6322846      784.77388     -44.654899      740.11899    
    113000   296.57353      0.011271465    5.929981       735.80709     -47.179057      688.62804    
    114000   287.06239      0.011271465    7.1478588      712.2097      -47.258592      664.9511     
    115000   318.20964      0.011271465    5.9201754      789.4869      -46.316532      743.17037    
    116000   304.51076      0.011271465    6.9373279      755.4996      -42.486932      713.01267    
    117000   295.07539      0.011271465    7.7039087      732.09017     -47.815706      684.27447    
    118000   287.71572      0.011271465   -1.7667736      713.83064     -47.996024      665.83461    
    119000   324.18447      0.011271465    0.36591799     804.31061     -49.084172      755.22644    
    120000   319.56021      0.011271465    8.543928       792.83769     -50.017717      742.81997    
    121000   290.46597      0.011271465    10.297934      720.65407     -46.812748      673.84132    
    122000   298.23233      0.011271465    3.1611512      739.92263     -48.570668      691.35196    
    123000   313.59488      0.011271465    7.0490273      778.03754     -48.070533      729.967      
    124000   292.83661      0.011271465    6.5119764      726.53569     -49.104152      677.43154    
    125000   294.47515      0.011271465    2.1423778      730.60097     -53.451628      677.14934    
    126000   322.2056       0.011271465    2.2741733      799.40096     -53.446083      745.95488    
    127000   304.55969      0.011271465    8.1639176      755.62099     -50.01079       705.6102     
    128000   295.98409      0.011271465    10.786515      734.34468     -51.39564       682.94904    
    129000   300.12711      0.011271465    7.2944986      744.62364     -50.62405       693.99959    
    130000   302.66032      0.011271465    5.130134       750.9086      -50.24596       700.66264    
    131000   301.87121      0.011271465    6.5254652      748.95081     -48.827662      700.12314    
    132000   307.41126      0.011271465    10.02185       762.6958      -50.020104      712.67569    
    133000   295.00231      0.011271465    6.3093353      731.90886     -46.225568      685.68329    
    134000   310.07544      0.011271465    0.5458702      769.30573     -44.646431      724.65929    
    135000   317.39138      0.011271465    6.856241       787.45675     -46.112433      741.34432    
    136000   301.34882      0.011271465    7.2823909      747.65473     -47.079202      700.57552    
    137000   304.35296      0.011271465    2.2120398      755.10809     -45.271741      709.83635    
    138000   307.32421      0.011271465    7.2774364      762.47983     -41.418605      721.06122    
    139000   302.2033       0.011271465    4.9691751      749.77472     -42.877978      706.89675    
    140000   296.44293      0.011271465    3.3834805      735.48309     -42.96429       692.5188     
    141000   293.81586      0.011271465    6.9869205      728.96524     -40.008787      688.95645    
    142000   308.49474      0.011271465    5.5302768      765.38395     -44.868762      720.51519    
    143000   302.5425       0.011271465    5.9155896      750.61628     -46.490156      704.12612    
    144000   305.50131      0.011271465    5.6031645      757.95717     -46.738924      711.21825    
    145000   299.71731      0.011271465    6.2437344      743.6069      -40.170628      703.43627    
    146000   298.69348      0.011271465    6.812874       741.06675     -42.224531      698.84222    
    147000   303.25707      0.011271465    6.9859507      752.38915     -46.313144      706.07601    
    148000   298.37625      0.011271465    6.0430958      740.27971     -41.908412      698.37129    
    149000   284.67259      0.011271465    5.0399226      706.28055     -46.33593       659.94462    
    150000   304.31747      0.011271465    0.7557841      755.02003     -43.902144      711.11788    
    151000   301.2355       0.011271465    8.2015774      747.37358     -40.753716      706.61986    
    152000   299.73322      0.011271465    9.4268975      743.64637     -38.455537      705.19084    
    153000   295.27005      0.011271465    5.481894       732.57312     -41.339831      691.23329    
    154000   310.57813      0.011271465   -1.6702876      770.55291     -41.410967      729.14194    
    155000   301.85201      0.011271465    10.111936      748.90315     -44.364157      704.53899    
    156000   295.65663      0.011271465    9.1782861      733.53225     -43.083727      690.44852    
    157000   286.33452      0.011271465   -0.90436597     710.40384     -41.375374      669.02847    
    158000   301.70291      0.011271465    5.8523991      748.53323     -42.847748      705.68548    
    159000   298.80972      0.011271465    16.606232      741.35515     -45.318512      696.03664    
    160000   295.75743      0.011271465    12.427996      733.78234     -40.498941      693.2834     
    161000   298.14016      0.011271465    2.8239841      739.69396     -45.494277      694.19968    
    162000   304.02208      0.011271465    10.650103      754.28717     -48.865495      705.42168    
    163000   294.79709      0.011271465    8.6266913      731.39971     -49.034435      682.36528    
    164000   296.54341      0.011271465   -0.78497112     735.73237     -47.078381      688.65399    
    165000   301.37703      0.011271465    2.3530178      747.72473     -47.222407      700.50232    
    166000   304.87758      0.011271465    13.129023      756.40968     -47.081482      709.3282     
    167000   297.84551      0.011271465    9.4250742      738.96293     -46.317937      692.64499    
    168000   304.88303      0.011271465    1.4144296      756.4232      -49.622623      706.80058    
    169000   298.26138      0.011271465    2.7446626      739.99469     -47.562943      692.43175    
    170000   308.9292       0.011271465    11.19671       766.46186     -47.901607      718.56025    
    171000   294.02692      0.011271465    6.4303111      729.4889      -45.594136      683.89476    
    172000   304.57081      0.011271465    4.9569091      755.64857     -43.922373      711.7262     
    173000   310.45424      0.011271465    1.651561       770.24552     -45.672926      724.5726     
    174000   301.46482      0.011271465    6.5624281      747.94252     -44.80252       703.14       
    175000   294.05916      0.011271465    8.0170964      729.56888     -41.993129      687.57575    
    176000   301.32868      0.011271465    5.2292826      747.60475     -38.521304      709.08345    
    177000   301.39382      0.011271465    6.7660351      747.76638     -35.435117      712.33126    
    178000   318.87845      0.011271465    6.7681262      791.14621     -40.629026      750.51719    
    179000   296.34965      0.011271465    5.9169624      735.25165     -39.61919       695.63246    
    180000   287.26252      0.011271465    5.5810267      712.70622     -38.880407      673.82582    
    181000   305.16741      0.011271465    6.7444933      757.12876     -40.548295      716.58046    
    182000   307.72621      0.011271465    7.9248105      763.4772      -41.421904      722.05529    
    183000   300.88219      0.011271465   -1.4605161      746.49701     -41.361642      705.13537    
    184000   299.09773      0.011271465    3.2949269      742.06972     -42.400383      699.66933    
    185000   311.98722      0.011271465    8.4465763      774.04888     -40.874792      733.17409    
    186000   297.59633      0.011271465    6.2342322      738.34469     -45.866713      692.47798    
    187000   286.39184      0.011271465    4.3789229      710.54606     -49.232472      661.31359    
    188000   307.20511      0.011271465    6.1286965      762.18434     -44.649811      717.53452    
    189000   301.12249      0.011271465    7.6655375      747.09319     -39.257001      707.83619    
    190000   312.27199      0.011271465    3.2172119      774.75541     -43.144966      731.61044    
    191000   300.95314      0.011271465    6.6344294      746.67303     -41.102884      705.57015    
    192000   301.22047      0.011271465    10.213244      747.33629     -45.755856      701.58043    
    193000   307.77889      0.011271465    4.9530536      763.60791     -44.258331      719.34957    
    194000   304.90251      0.011271465    1.02412        756.47153     -46.569955      709.90157    
    195000   322.63001      0.011271465    5.7673346      800.45395     -47.577344      752.87661    
    196000   297.89164      0.011271465    6.3427873      739.07736     -47.387361      691.69       
    197000   294.10707      0.011271465    9.9612265      729.68776     -47.206737      682.48102    
    198000   300.39581      0.011271465    5.5983144      745.29028     -43.758834      701.53145    
    199000   299.74198      0.011271465    2.4622638      743.66811     -44.117943      699.55017    
    200000   298.5895       0.011271465    4.5349505      740.80879     -44.736984      696.07181    
    201000   309.69548      0.011271465    8.8791601      768.36302     -45.246875      723.11614    
    202000   289.1982       0.011271465    7.4713594      717.50871     -48.452697      669.05601    
    203000   283.52416      0.011271465    5.0036883      703.43126     -45.920766      657.5105     
    204000   309.3396       0.011271465    4.7350304      767.48007     -50.073408      717.40666    
    205000   308.35863      0.011271465    7.3058237      765.04626     -46.823729      718.22253    
    206000   304.76962      0.011271465    5.4803985      756.14182     -51.277714      704.86411    
    207000   293.62275      0.011271465    9.1016376      728.48615     -51.073568      677.41258    
    208000   304.07266      0.011271465    5.9040505      754.41264     -45.79619       708.61645    
    209000   308.56181      0.011271465    4.9531711      765.55037     -46.887798      718.66257    
    210000   297.85335      0.011271465    6.047342       738.98237     -47.475311      691.50706    
    211000   292.95841      0.011271465    5.5262499      726.83788     -44.626599      682.21128    
    212000   304.74797      0.011271465    3.4857335      756.08812     -44.209396      711.87872    
    213000   309.08673      0.011271465    3.8385388      766.8527      -46.170732      720.68197    
    214000   301.92507      0.011271465    6.4758186      749.08443     -42.676039      706.40839    
    215000   289.15899      0.011271465    7.0616077      717.41142     -47.378211      670.03321    
    216000   295.12266      0.011271465    6.3416814      732.20745     -42.570554      689.63689    
    217000   308.25241      0.011271465    5.687938       764.78272     -41.559926      723.22279    
    218000   297.18469      0.011271465    5.9292532      737.32341     -41.932161      695.39124    
    219000   293.0379       0.011271465    6.357382       727.0351      -40.098339      686.93676    
    220000   297.5761       0.011271465    5.3712451      738.29451     -40.894732      697.39977    
    221000   305.54393      0.011271465    5.5177849      758.06292     -41.608011      716.45491    
    222000   308.19475      0.011271465    5.8105399      764.63967     -45.133862      719.50581    
    223000   294.74652      0.011271465    7.0254427      731.27424     -45.007459      686.26678    
    224000   286.88404      0.011271465    5.3060798      711.76722     -42.445576      669.32164    
    225000   310.59897      0.011271465    5.6657076      770.60461     -43.339368      727.26525    
    226000   311.66896      0.011271465    6.304407       773.25929     -44.451676      728.80761    
    227000   301.4779       0.011271465    5.7424693      747.97499     -42.652841      705.32215    
    228000   296.51982      0.011271465    4.7483845      735.67385     -44.261615      691.41224    
    229000   317.84624      0.011271465    8.1770458      788.58527     -44.448287      744.13699    
    230000   299.82912      0.011271465    9.8613663      743.88432     -39.833776      704.05055    
    231000   295.37058      0.011271465    4.9603722      732.82256     -39.005072      693.81749    
    232000   309.34096      0.011271465    6.5287669      767.48346     -40.162719      727.32074    
    233000   313.92747      0.011271465    4.8280474      778.8627      -37.420577      741.44212    
    234000   289.04228      0.011271465    5.7993759      717.12186     -35.392396      681.72946    
    235000   299.93341      0.011271465    5.7252047      744.14306     -39.917932      704.22513    
    236000   306.74956      0.011271465    7.3769043      761.05412     -36.46168       724.59244    
    237000   303.05555      0.011271465    6.6648165      751.88917     -38.911547      712.97762    
    238000   292.72888      0.011271465    4.7375432      726.26842     -37.614034      688.65439    
    239000   306.66216      0.011271465    6.3462966      760.83728     -42.796724      718.04055    
    240000   302.38893      0.011271465    5.5527814      750.23528     -43.7692        706.46608    
    241000   295.06925      0.011271465    5.9798371      732.07494     -37.469042      694.6059     
    242000   285.71289      0.011271465    5.376405       708.86157     -42.191209      666.67036    
    243000   288.61298      0.011271465    6.8403538      716.05677     -40.417905      675.63887    
    244000   312.2679       0.011271465    6.8351195      774.74527     -41.649809      733.09547    
    245000   301.19412      0.011271465    5.1552347      747.27091     -40.266828      707.00408    
    246000   284.80183      0.011271465    8.3777147      706.60118     -40.941085      665.66009    
    247000   306.36611      0.011271465    7.4123337      760.10276     -39.079728      721.02303    
    248000   311.79701      0.011271465    5.4730984      773.57697     -38.138102      735.43887    
    249000   291.66682      0.011271465    3.8285783      723.63342     -41.176715      682.4567     
    250000   289.12454      0.011271465    8.2650971      717.32595     -36.934468      680.39148    
    251000   282.6836       0.011271465    9.4279772      701.3458      -38.294984      663.05082    
    252000   307.14414      0.011271465    6.4159343      762.03308     -41.319841      720.71324    
    253000   295.63936      0.011271465    3.5030987      733.48941     -34.061667      699.42775    
    254000   298.80352      0.011271465    7.7989259      741.33977     -34.849448      706.49032    
    255000   301.11661      0.011271465    8.5799095      747.07861     -35.497575      711.58104    
    256000   300.30474      0.011271465    6.3280595      745.06435     -32.148937      712.91541    
    257000   299.56406      0.011271465    5.5795188      743.2267      -37.016994      706.2097     
    258000   313.90297      0.011271465    7.2753156      778.80193     -35.745462      743.05646    
    259000   300.80916      0.011271465    7.1940264      746.31583     -37.261884      709.05394    
    260000   300.88893      0.011271465    6.4739947      746.51372     -34.415302      712.09842    
    261000   302.47578      0.011271465    5.3602987      750.45076     -35.897305      714.55346    
    262000   305.7142       0.011271465    4.0716374      758.48535     -38.355181      720.13017    
    263000   289.35317      0.011271465    6.9384636      717.8932      -38.576412      679.31679    
    264000   295.59647      0.011271465    8.6246387      733.38298     -39.018104      694.36488    
    265000   314.74496      0.011271465    7.8404252      780.89091     -36.907068      743.98384    
    266000   297.15428      0.011271465    4.9157894      737.24796     -38.406268      698.84169    
    267000   292.97972      0.011271465    7.192889       726.89076     -40.326551      686.56421    
    268000   307.63515      0.011271465    1.9861497      763.25129     -39.722105      723.52919    
    269000   312.05742      0.011271465   -6.3487789      774.22307     -33.634654      740.58842    
    270000   295.70978      0.011271465    6.9847644      733.66411     -33.466426      700.19769    
    271000   274.71058      0.011271465    10.802472      681.56452     -32.211805      649.35272    
    272000   300.82037      0.011271465    15.01767       746.34363     -33.521286      712.82234    
    273000   314.58143      0.011271465    5.8635618      780.4852      -29.949643      750.53556    
    274000   297.66438      0.011271465    1.741541       738.51352     -30.370159      708.14336    
    275000   291.91007      0.011271465    9.2094286      724.23693     -29.574623      694.6623     
    276000   306.80507      0.011271465    8.8367006      761.19184     -38.406879      722.78496    
    277000   306.85207      0.011271465    1.9013724      761.30845     -35.079521      726.22893    
    278000   295.71506      0.011271465    5.6078324      733.67721     -31.600769      702.07645    
    279000   308.39069      0.011271465    6.0980299      765.12581     -36.498214      728.6276     
    280000   293.12621      0.011271465    6.0887315      727.2542      -33.518865      693.73534    
    281000   295.49803      0.011271465    5.5889322      733.13876     -31.224306      701.91445    
    282000   291.12672      0.011271465    6.8447665      722.29341     -35.634787      686.65863    
    283000   300.14697      0.011271465    6.1096602      744.6729      -38.050176      706.62272    
    284000   295.65096      0.011271465    5.7111365      733.51819     -35.335719      698.18247    
    285000   299.62396      0.011271465    5.9413616      743.37531     -37.566811      705.8085     
    286000   306.53858      0.011271465    8.8288603      760.53067     -39.825697      720.70497    
    287000   297.19265      0.011271465    5.1261819      737.34315     -40.957133      696.38602    
    288000   298.86752      0.011271465    5.9830189      741.49854     -37.27773       704.22081    
    289000   302.95617      0.011271465    4.7664781      751.64261     -33.392691      718.24992    
    290000   293.28011      0.011271465    5.5133373      727.63603     -34.997445      692.63858    
    291000   290.85625      0.011271465    5.7727817      721.62237     -35.707531      685.91483    
    292000   288.94582      0.011271465   -0.50502718     716.88254     -34.537775      682.34476    
    293000   298.35879      0.011271465    5.201089       740.23638     -34.332466      705.90392    
    294000   307.085        0.011271465    8.8062566      761.88636     -35.126616      726.75974    
    295000   292.12048      0.011271465   -1.592648       724.75897     -32.769187      691.98978    
    296000   301.16303      0.011271465    7.6592919      747.19378     -36.616053      710.57773    
    297000   305.22561      0.011271465    7.9125613      757.27316     -33.450185      723.82298    
    298000   329.66194      0.011271465    8.4196578      817.90037     -35.54967       782.3507     
    299000   299.24805      0.011271465    1.9350927      742.44267     -36.078298      706.36437    
    300000   281.93455      0.011271465    6.5356894      699.48739     -37.352438      662.13495    
    301000   304.0786       0.011271465    7.5002172      754.42738     -33.561744      720.86564    
    302000   307.30371      0.011271465    5.9238834      762.42898     -37.95271       724.47627    
    303000   291.70419      0.011271465    5.8287795      723.72613     -34.344324      689.3818     
    304000   296.65085      0.011271465    7.5684959      735.99894     -36.943145      699.0558     
    305000   309.81471      0.011271465    9.2574263      768.65884     -36.693089      731.96576    
    306000   310.97813      0.011271465   -1.5627766      771.54532     -33.675432      737.86989    
    307000   299.57679      0.011271465   -0.76430565     743.25827     -36.316383      706.94189    
    308000   302.12146      0.011271465    8.5097593      749.57167     -37.080141      712.49153    
    309000   305.39502      0.011271465    13.931014      757.69347     -36.046785      721.64668    
    310000   296.42986      0.011271465    9.5299172      735.45066     -34.2369        701.21376    
    311000   299.47111      0.011271465    0.77286988     742.99608     -38.890538      704.10554    
    312000   295.12025      0.011271465    14.545146      732.20147     -38.357353      693.84411    
    313000   290.86746      0.011271465    11.940142      721.65018     -43.70342       677.94676    
    314000   300.76316      0.011271465    10.612153      746.20169     -39.035422      707.16627    
    315000   309.35721      0.011271465    1.2990752      767.52377     -40.33344       727.19033    
    316000   289.96034      0.011271465    4.5114721      719.39961     -30.817336      688.58227    
    317000   304.77161      0.011271465    9.6781091      756.14676     -41.343254      714.80351    
    318000   306.11229      0.011271465    5.9848043      759.47302     -42.51162       716.9614     
    319000   301.17541      0.011271465   -3.0435916      747.22449     -37.628906      709.59558    
    320000   298.32192      0.011271465    2.2491335      740.1449      -45.137878      695.00702    
    321000   292.12627      0.011271465    9.9315207      724.77333     -42.945953      681.82738    
    322000   299.74914      0.011271465    6.9556545      743.68587     -35.496105      708.18977    
    323000   299.41268      0.011271465    3.215398       742.85112     -38.75003       704.10109    
    324000   297.81058      0.011271465    6.6829317      738.87626     -34.717338      704.15892    
    325000   302.69635      0.011271465    9.7312125      750.99798     -38.745139      712.25284    
    326000   303.24056      0.011271465    9.7957268      752.34819     -40.672164      711.67603    
    327000   305.38282      0.011271465    1.7259329      757.66319     -36.374864      721.28832    
    328000   305.18851      0.011271465    4.8861313      757.18111     -40.794745      716.38637    
    329000   300.37161      0.011271465    8.3644319      745.23025     -36.351457      708.87879    
    330000   301.1398       0.011271465    5.9186899      747.13615     -36.522927      710.61322    
    331000   302.12083      0.011271465    4.9423008      749.57009     -35.19425       714.37584    
    332000   301.1544       0.011271465    4.7471464      747.17237     -38.102717      709.06965    
    333000   288.19526      0.011271465    7.3158577      715.02039     -36.358842      678.66155    
    334000   292.75348      0.011271465    8.6475255      726.32946     -35.90984       690.41962    
    335000   312.73219      0.011271465    5.8163292      775.89719     -34.39293       741.50426    
    336000   309.36607      0.011271465    5.9143299      767.54575     -35.145656      732.40009    
    337000   297.22343      0.011271465    6.9984828      737.41952     -34.322602      703.09692    
    338000   297.55066      0.011271465    5.6227497      738.23139     -29.3582        708.87319    
    339000   303.99203      0.011271465    6.6994521      754.21261     -31.278053      722.93455    
    340000   295.543        0.011271465    3.660842       733.25033     -28.986119      704.26422    
    341000   308.26852      0.011271465    9.2388593      764.82269     -32.940036      731.88265    
    342000   304.53928      0.011271465    6.8089681      755.57035     -32.665165      722.90518    
    343000   291.55769      0.011271465    2.8916263      723.36266     -30.732095      692.63057    
    344000   297.96162      0.011271465    7.2529093      739.25099     -34.900856      704.35013    
    345000   308.8768       0.011271465    9.2320001      766.33186     -27.866244      738.46561    
    346000   299.61351      0.011271465    3.5328168      743.34937     -29.565673      713.7837     
    347000   288.51829      0.011271465    6.793356       715.82183     -31.353363      684.46847    
    348000   289.28712      0.011271465    7.6996214      717.72933     -30.339713      687.38961    
    349000   307.66615      0.011271465    4.8756654      763.32819     -29.963785      733.36441    
    350000   301.52609      0.011271465    5.0565589      748.09454     -27.056033      721.0385     
    351000   294.31239      0.011271465    9.6639964      730.19715     -30.462078      699.73507    
    352000   302.96547      0.011271465    6.258355       751.66569     -31.887678      719.77801    
    353000   292.58964      0.011271465    5.5101839      725.92297     -31.179122      694.74385    
    354000   307.72058      0.011271465    10.619514      763.46324     -27.871039      735.5922     
    355000   310.31233      0.011271465    5.1401972      769.89343     -27.904234      741.9892     
    356000   296.75532      0.011271465    3.1067772      736.25812     -26.791641      709.46648    
    357000   303.69689      0.011271465    4.2816124      753.48036     -28.237666      725.24269    
    358000   293.10421      0.011271465    5.7267158      727.19962     -31.61773       695.58189    
    359000   291.96306      0.011271465    7.0192433      724.36839     -32.105056      692.26333    
    360000   291.69996      0.011271465    7.8680534      723.71564     -29.583315      694.13232    
    361000   312.2861       0.011271465    6.3549926      774.79043     -33.937308      740.85312    
    362000   297.78068      0.011271465    3.5643366      738.80208     -34.188018      704.61406    
    363000   295.75995      0.011271465    6.6426632      733.78858     -28.039738      705.74884    
    364000   311.91508      0.011271465    7.978427       773.86991     -30.834688      743.03522    
    365000   299.08903      0.011271465    5.3679569      742.04812     -28.463539      713.58458    
    366000   293.4339       0.011271465    5.7595833      728.01759     -29.327828      698.68976    
    367000   287.36854      0.011271465    10.314522      712.96928     -29.641277      683.328      
    368000   311.84095      0.011271465    7.0245971      773.68598     -29.417699      744.26828    
    369000   295.37229      0.011271465    0.75283192     732.82678     -31.149912      701.67687    
    370000   303.54072      0.011271465    3.4715922      753.09288     -34.725433      718.36745    
    371000   298.63996      0.011271465    6.9256286      740.93397     -35.945805      704.98816    
    372000   302.87481      0.011271465    6.589069       751.44076     -33.449719      717.99104    
    373000   311.88206      0.011271465    8.4960635      773.78799     -30.422992      743.365      
    374000   307.31739      0.011271465    3.0660289      762.46291     -30.922834      731.54008    
    375000   296.18767      0.011271465    4.6280063      734.84978     -34.200814      700.64896    
    376000   291.63699      0.011271465    5.7529477      723.55941     -32.808634      690.75078    
    377000   307.19602      0.011271465    9.6845655      762.16181     -32.36696       729.79485    
    378000   304.037        0.011271465    7.2751995      754.32417     -29.339228      724.98495    
    379000   307.22158      0.011271465    5.9516412      762.22522     -30.38442       731.8408     
    380000   296.59803      0.011271465    1.9541067      735.86789     -26.851054      709.01683    
    381000   297.59034      0.011271465    6.2604102      738.32982     -25.686997      712.64283    
    382000   296.80496      0.011271465    5.9982175      736.3813      -25.765057      710.61624    
    383000   301.4423       0.011271465    5.9053236      747.88664     -26.474234      721.41241    
    384000   307.89064      0.011271465    5.6536612      763.88516     -23.798553      740.08661    
    385000   304.46635      0.011271465    6.5251607      755.3894      -25.507152      729.88224    
    386000   311.58525      0.011271465    7.2546421      773.0516      -23.90456       749.14704    
    387000   305.0964       0.011271465    6.2655107      756.95259     -24.74146       732.21113    
    388000   292.62655      0.011271465    5.8002508      726.01454     -27.222006      698.79254    
    389000   291.06832      0.011271465    4.0647247      722.14853     -27.394943      694.75358    
    390000   299.85944      0.011271465    5.8260659      743.95954     -29.081575      714.87796    
    391000   299.86387      0.011271465    6.3704612      743.97054     -26.155548      717.81499    
    392000   295.59309      0.011271465    4.4909408      733.37461     -27.659728      705.71488    
    393000   305.78795      0.011271465    6.1574432      758.66835     -29.088391      729.57995    
    394000   322.42302      0.011271465    7.7801565      799.94041     -30.494593      769.44581    
    395000   306.00882      0.011271465    6.6543119      759.21631     -29.775728      729.44058    
    396000   292.80539      0.011271465    5.9068933      726.45824     -29.899768      696.55847    
    397000   292.7577       0.011271465    5.4999446      726.33992     -31.204177      695.13574    
    398000   312.39353      0.011271465    6.5734403      775.05696     -30.952604      744.10435    
    399000   294.88652      0.011271465    6.4732235      731.62159     -25.648116      705.97347    
    400000   280.73504      0.011271465    5.2680065      696.51136     -30.864684      665.64668    
    401000   298.6091       0.011271465    6.158161       740.85742     -31.083857      709.77356    
    402000   296.30536      0.011271465    6.6726545      735.14176     -26.266807      708.87495    
    403000   302.99823      0.011271465    5.2722379      751.74697     -29.248581      722.49839    
    404000   308.42462      0.011271465    6.0460077      765.20999     -29.378965      735.83103    
    405000   288.37211      0.011271465    6.813304       715.45916     -30.421414      685.03774    
    406000   290.88104      0.011271465    6.764836       721.68388     -33.576591      688.10729    
    407000   310.62799      0.011271465    5.7226707      770.67661     -32.539773      738.13684    
    408000   303.08026      0.011271465    5.1561579      751.95047     -32.017206      719.93327    
    409000   291.61479      0.011271465    5.5585016      723.50434     -29.40732       694.09702    
    410000   301.84954      0.011271465    6.4500573      748.89703     -26.018149      722.87888    
    411000   298.76612      0.011271465    6.2458475      741.24699     -26.82418       714.42281    
    412000   294.82743      0.011271465    5.3663299      731.47498     -24.637938      706.83705    
    413000   306.27455      0.011271465    9.2623795      759.87561     -25.06128       734.81433    
    414000   294.23192      0.011271465    7.3121389      729.99751     -25.299295      704.69822    
    415000   307.31545      0.011271465    3.7544418      762.4581      -25.389243      737.06886    
    416000   297.88056      0.011271465    9.4610445      739.04987     -20.624943      718.42493    
    417000   294.73125      0.011271465    9.4195892      731.23635     -20.725869      710.51049    
    418000   294.29162      0.011271465    5.4113153      730.14563     -23.394362      706.75127    
    419000   312.04663      0.011271465    2.5577279      774.19629     -26.94465       747.25164    
    420000   298.94615      0.011271465    5.9808075      741.69363     -25.92549       715.76814    
    421000   297.81129      0.011271465    7.5034688      738.87802     -25.499489      713.37853    
    422000   295.54625      0.011271465    4.3805717      733.2584      -25.059694      708.19871    
    423000   298.22811      0.011271465    3.9790536      739.91216     -22.624472      717.28769    
    424000   304.59279      0.011271465    6.091717       755.70311     -22.390834      733.31228    
    425000   307.38305      0.011271465    9.2257477      762.62582     -23.10235       739.52347    
    426000   302.73147      0.011271465    5.4735934      751.08513     -27.04053       724.0446     
    427000   298.64525      0.011271465    6.0683657      740.9471      -28.739903      712.2072     
    428000   303.02438      0.011271465    6.046865       751.81184     -31.289792      720.52205    
    429000   293.15609      0.011271465    6.5323842      727.32835     -25.973645      701.3547     
    430000   290.88019      0.011271465    4.2225763      721.68178     -26.50506       695.17672    
    431000   313.66955      0.011271465    5.6418082      778.22281     -26.36866       751.85415    
    432000   311.71056      0.011271465    12.294406      773.3625      -27.580349      745.78215    
    433000   290.49671      0.011271465    3.9593837      720.73034     -23.26047       697.46987    
    434000   294.95045      0.011271465    4.0341866      731.78019     -23.517423      708.26277    
    435000   307.1913       0.011271465    7.5506957      762.15008     -20.124675      742.0254     
    436000   300.13708      0.011271465    10.773683      744.64837     -20.198682      724.44969    
    437000   301.37856      0.011271465    4.8787654      747.72851     -21.453348      726.27517    
    438000   291.69209      0.011271465    5.126124       723.69611     -25.053274      698.64284    
    439000   306.39963      0.011271465    3.4627595      760.18592     -26.624246      733.56168    
    440000   321.29026      0.011271465    9.2779473      797.12999     -26.345885      770.7841     
    441000   298.28655      0.011271465    8.1678999      740.05715     -28.106046      711.95111    
    442000   279.59095      0.011271465    10.795883      693.67286     -26.090425      667.58243    
    443000   299.74115      0.011271465    1.8611034      743.66607     -21.620161      722.0459     
    444000   315.47496      0.011271465   -0.13835175     782.70208     -22.576415      760.12567    
    445000   296.93995      0.011271465    7.8773447      736.7162      -25.074311      711.64189    
    446000   294.11478      0.011271465    6.5911952      729.70687     -24.888361      704.81851    
    447000   306.45004      0.011271465   -4.8983378      760.311       -23.79998       736.51102    
    448000   302.43209      0.011271465    0.35686406     750.34234     -22.354273      727.98807    
    449000   298.14825      0.011271465    5.9546701      739.71402     -19.311636      720.40238    
    450000   301.18166      0.011271465    8.5696986      747.24001     -21.915416      725.3246     
    451000   306.9441       0.011271465    7.7592947      761.53677     -21.299842      740.23693    
    452000   284.07612      0.011271465    1.8241093      704.80069     -21.651343      683.14935    
    453000   307.16374      0.011271465    4.1760692      762.08171     -22.956923      739.12479    
    454000   308.15996      0.011271465    6.3994089      764.55337     -24.954946      739.59842    
    455000   306.00112      0.011271465    7.8188249      759.19722     -29.305334      729.89188    
    456000   300.75169      0.011271465    5.1216609      746.17324     -26.832084      719.34116    
    457000   308.19247      0.011271465    6.1612265      764.634       -25.203589      739.43041    
    458000   302.15366      0.011271465    7.387413       749.65157     -24.615853      725.03572    
    459000   299.40393      0.011271465    7.4248887      742.82939     -23.259255      719.57014    
    460000   294.85682      0.011271465    3.5553311      731.5479      -24.730275      706.81762    
    461000   326.1798       0.011271465    5.159948       809.26107     -23.11293       786.14814    
    462000   304.11201      0.011271465    6.4481765      754.51028     -24.283749      730.22654    
    463000   293.64691      0.011271465    5.8996471      728.54608     -24.05356       704.49252    
    464000   285.00467      0.011271465    5.8036864      707.10444     -24.437552      682.66688    
    465000   296.00269      0.011271465    4.2386681      734.39083     -26.497321      707.8935     
    466000   312.91738      0.011271465    6.1700736      776.35664     -25.237424      751.11921    
    467000   292.28891      0.011271465    10.405979      725.17684     -28.443558      696.73328    
    468000   294.48466      0.011271465    5.7120728      730.62457     -31.084649      699.53992    
    469000   296.30283      0.011271465    2.9225439      735.1355      -24.219659      710.91584    
    470000   300.81298      0.011271465    5.9797752      746.3253      -24.855876      721.46943    
    471000   301.60647      0.011271465    6.1320603      748.29396     -24.067657      724.22631    
    472000   314.49761      0.011271465    9.0215576      780.27725     -21.901445      758.37581    
    473000   298.0544       0.011271465    7.7043835      739.48118     -23.177609      716.30357    
    474000   289.27606      0.011271465    2.8539379      717.70187     -23.968532      693.73334    
    475000   313.45231      0.011271465    10.475851      777.68383     -23.525286      754.15854    
    476000   302.80959      0.011271465    9.0929376      751.27895     -31.200976      720.07797    
    477000   294.07837      0.011271465    6.438576       729.61653     -31.176342      698.44019    
    478000   297.95529      0.011271465    2.7954129      739.23529     -27.354177      711.88111    
    479000   310.37425      0.011271465    6.6212644      770.04707     -27.903541      742.14353    
    480000   296.69181      0.011271465    7.2817298      736.10057     -30.151863      705.94871    
    481000   294.48027      0.011271465    5.7802414      730.61366     -24.250186      706.36348    
    482000   298.18446      0.011271465    6.2535839      739.80388     -26.823293      712.98058    
    483000   294.90772      0.011271465    2.704387       731.67418     -27.044967      704.62921    
    484000   294.81472      0.011271465    5.0081858      731.44344     -25.595361      705.84808    
    485000   290.6249       0.011271465    8.1602486      721.04839     -27.785018      693.26338    
    486000   312.26367      0.011271465    6.4085428      774.73477     -26.853526      747.88124    
    487000   312.8905       0.011271465    5.5953406      776.28995     -24.778126      751.51182    
    488000   290.32401      0.011271465    6.222476       720.30188     -20.603182      699.6987     
    489000   290.78467      0.011271465    4.7292394      721.44478     -22.169238      699.27554    
    490000   299.99825      0.011271465    6.5389796      744.30393     -21.099843      723.20409    
    491000   301.30272      0.011271465    6.395937       747.54036     -20.702937      726.83742    
    492000   298.57564      0.011271465    5.7779742      740.77439     -19.623868      721.15052    
    493000   310.82679      0.011271465    6.7667217      771.16983     -22.961083      748.20874    
    494000   311.55764      0.011271465    5.397203       772.98308     -22.50541       750.47767    
    495000   290.38346      0.011271465    5.851284       720.44938     -22.570609      697.87877    
    496000   301.42126      0.011271465    6.6926001      747.83445     -26.029123      721.80533    
    497000   322.93001      0.011271465    3.3019809      801.19827     -26.267376      774.93089    
    498000   285.83622      0.011271465    3.2369361      709.16755     -26.661539      682.50601    
    499000   298.78549      0.011271465    8.0928736      741.29503     -26.298764      714.99626    
    500000   300.47799      0.011271465    6.1720135      745.49417     -26.875454      718.61872    
    501000   300.9922       0.011271465    4.4285264      746.76995     -26.735266      720.03468    
    502000   303.31865      0.011271465    6.9207681      752.54193     -25.307707      727.23422    
    503000   297.93247      0.011271465    6.2059544      739.17868     -20.53932       718.63936    
    504000   296.35533      0.011271465    6.1051977      735.26574     -23.281491      711.98425    
    505000   304.58427      0.011271465    6.1967389      755.68196     -21.410025      734.27193    
    506000   301.42623      0.011271465    6.4602484      747.84678     -22.740009      725.10677    
    507000   304.60381      0.011271465    5.4609227      755.73044     -24.310536      731.41991    
    508000   293.86088      0.011271465    5.6761288      729.07695     -23.681961      705.39499    
    509000   302.3949       0.011271465    6.308328       750.25008     -24.143862      726.10621    
    510000   289.73804      0.011271465    4.2697292      718.84807     -24.327768      694.5203     
    511000   299.88167      0.011271465    5.2604797      744.01469     -24.109463      719.90523    
    512000   300.83348      0.011271465    4.6449091      746.37615     -26.207168      720.16898    
    513000   301.58737      0.011271465    5.8719158      748.24657     -22.540062      725.70651    
    514000   286.81636      0.011271465    5.4496407      711.5993      -20.479194      691.1201     
    515000   311.66997      0.011271465    6.1227202      773.26178     -19.433769      753.82801    
    516000   314.52493      0.011271465    6.5358294      780.34501     -19.64467       760.70035    
    517000   308.46031      0.011271465    7.5713668      765.29853     -18.517484      746.78105    
    518000   299.83339      0.011271465    6.2532444      743.89491     -20.831206      723.0637     
    519000   303.90946      0.011271465    5.7537017      754.00775     -17.264412      736.74334    
    520000   317.12898      0.011271465    8.5003687      786.80575     -16.824164      769.98159    
    521000   299.89375      0.011271465    6.1251696      744.04467     -15.241344      728.80332    
    522000   307.72437      0.011271465    6.7136468      763.47264     -15.76926       747.70338    
    523000   311.71699      0.011271465    6.8947352      773.37845     -15.620308      757.75814    
    524000   293.1412       0.011271465    6.5261098      727.2914      -13.871576      713.41982    
    525000   293.70718      0.011271465    5.9662636      728.69562     -16.185058      712.51056    
    526000   313.66636      0.011271465    6.8532578      778.21489     -16.808835      761.40606    
    527000   307.03679      0.011271465    7.5277111      761.76674     -15.449356      746.31738    
    528000   288.5759       0.011271465    6.7234595      715.96475     -17.562631      698.40212    
    529000   291.31301      0.011271465    4.0482654      722.75562     -21.251501      701.50412    
    530000   316.13575      0.011271465    6.216802       784.3415      -15.642532      768.69897    
    531000   313.0678       0.011271465    11.714282      776.72985     -18.715203      758.01465    
    532000   292.72426      0.011271465    5.8485605      726.25695     -19.451044      706.8059     
    533000   297.68643      0.011271465    2.7019781      738.56824     -17.856592      720.71165    
    534000   315.75888      0.011271465    7.4800983      783.40649     -18.186987      765.2195     
    535000   285.47553      0.011271465    5.9112386      708.27265     -19.105181      689.16747    
    536000   302.46093      0.011271465    2.9825428      750.4139      -22.55467       727.85923    
    537000   315.42965      0.011271465    8.7322973      782.58966     -18.667287      763.92237    
    538000   299.78084      0.011271465    5.6409311      743.76452     -20.271241      723.49328    
    539000   312.17251      0.011271465    3.8151092      774.50859     -19.48674       755.02185    
    540000   303.71857      0.011271465    10.001855      753.53414     -17.442553      736.09159    
    541000   287.48076      0.011271465    5.5874153      713.2477      -18.101515      695.14618    
    542000   306.52106      0.011271465    5.5967242      760.48719     -19.672833      740.81436    
    543000   307.4554       0.011271465    6.7630761      762.80531     -19.220496      743.58481    
    544000   304.25167      0.011271465    6.0855643      754.85678     -19.64798       735.2088     
    545000   298.0173       0.011271465    4.8466085      739.38915     -23.37143       716.01772    
    546000   299.20728      0.011271465    7.429265       742.34151     -22.202081      720.13943    
    547000   306.25332      0.011271465    4.437718       759.82292     -22.106139      737.71678    
    548000   301.91799      0.011271465    8.674531       749.06686     -26.190689      722.87617    
    549000   295.04735      0.011271465    7.4897325      732.02062     -23.30676       708.71386    
    550000   301.36921      0.011271465    2.9848471      747.70532     -21.086878      726.61844    
    551000   311.03561      0.011271465    6.4450309      771.68791     -21.414931      750.27298    
    552000   290.42341      0.011271465    7.5778623      720.5485      -24.119716      696.42878    
    553000   293.7219       0.011271465    5.5324521      728.73213     -23.412987      705.31914    
    554000   304.20929      0.011271465    4.7738976      754.75163     -21.521321      733.23031    
    555000   304.51246      0.011271465    5.8161883      755.50381     -18.853502      736.65031    
    556000   301.75064      0.011271465    6.767163       748.65165     -20.484168      728.16748    
    557000   291.92377      0.011271465    5.320944       724.27092     -20.016586      704.25433    
    558000   304.07504      0.011271465    6.1878466      754.41855     -21.177222      733.24133    
    559000   302.53659      0.011271465    5.0328533      750.60162     -22.899972      727.70164    
    560000   297.74882      0.011271465    5.6676153      738.72303     -21.644967      717.07806    
    561000   299.41231      0.011271465    8.7994298      742.85019     -22.080108      720.77009    
    562000   314.01387      0.011271465    6.846407       779.07706     -20.238819      758.83825    
    563000   315.64956      0.011271465    3.4112477      783.13527     -21.642996      761.49228    
    564000   302.51033      0.011271465    0.87357214     750.53646     -20.44262       730.09384    
    565000   289.14211      0.011271465    9.3560405      717.36955     -20.895533      696.47401    
    566000   301.66452      0.011271465    6.7972787      748.43798     -21.191211      727.24677    
    567000   311.95686      0.011271465    2.1207636      773.97358     -21.664006      752.30957    
    568000   296.22499      0.011271465    4.3822482      734.94236     -22.119357      712.82301    
    569000   288.95967      0.011271465    10.258289      716.91691     -20.118679      696.79823    
    570000   299.63626      0.011271465    7.9425051      743.40582     -21.974373      721.43145    
    571000   300.34106      0.011271465    2.0349411      745.15444     -23.860667      721.29377    
    572000   296.28173      0.011271465    5.7733513      735.08313     -21.204162      713.87897    
    573000   307.88866      0.011271465    7.0796731      763.88025     -20.146367      743.73388    
    574000   287.37145      0.011271465   -0.40676696     712.97648     -18.069018      694.90746    
    575000   290.17467      0.011271465    6.6335563      719.93135     -19.289947      700.64141    
    576000   325.47268      0.011271465    8.2269499      807.50669     -16.607009      790.89968    
    577000   308.75687      0.011271465    2.9933241      766.03432     -20.078778      745.95554    
    578000   300.97414      0.011271465    4.7989539      746.72513     -17.823207      728.90192    
    579000   294.3944       0.011271465    7.3256458      730.40062     -17.307721      713.09289    
    580000   315.51832      0.011271465    6.4226335      782.80964     -17.250808      765.55884    
    581000   302.8379       0.011271465    5.6209075      751.34917     -21.212415      730.13676    
    582000   286.11206      0.011271465    5.4616399      709.8519      -18.106127      691.74577    
    583000   302.62173      0.011271465    6.969892       750.81285     -20.448797      730.36405    
    584000   305.14686      0.011271465    4.9762596      757.07777     -17.85121       739.22656    
    585000   291.62194      0.011271465    4.8884699      723.52206     -21.260189      702.26187    
    586000   309.83616      0.011271465    5.2831674      768.71205     -18.035785      750.67627    
    587000   295.63745      0.011271465    7.9958943      733.48465     -17.370487      716.11417    
    588000   293.70101      0.011271465    6.007963       728.68029     -17.91053       710.76976    
    589000   307.66641      0.011271465    5.1798033      763.32884     -19.261972      744.06687    
    590000   299.20933      0.011271465    6.8876516      742.34659     -18.769149      723.57744    
    591000   294.18695      0.011271465    6.2553829      729.88593     -17.77534       712.11059    
    592000   289.33321      0.011271465    5.3208574      717.84367     -15.118136      702.72553    
    593000   287.4964       0.011271465    5.0490812      713.28648     -16.162642      697.12384    
    594000   311.38657      0.011271465    4.7120874      772.55868     -19.50259       753.05609    
    595000   306.34476      0.011271465    8.9258691      760.04978     -18.583447      741.46634    
    596000   291.09112      0.011271465    5.1825616      722.2051      -19.183366      703.02174    
    597000   296.2398       0.011271465    3.6688273      734.97911     -21.237215      713.7419     
    598000   308.50984      0.011271465    4.3703         765.42141     -16.292514      749.1289     
    599000   312.685        0.011271465    8.9388951      775.7801      -16.60735       759.17275    
    600000   287.77102      0.011271465    9.1825416      713.96784     -18.106376      695.86146    
    601000   294.10141      0.011271465    7.025189       729.67371     -16.364884      713.30882    
    602000   305.9151       0.011271465    5.557491       758.9838      -18.201186      740.78261    
    603000   301.31798      0.011271465    6.3533068      747.57821     -18.730403      728.84781    
    604000   290.05272      0.011271465    5.9266447      719.62878     -18.22418       701.4046     
    605000   300.18917      0.011271465    6.2913106      744.7776      -20.516751      724.26085    
    606000   302.75817      0.011271465    7.539977       751.15137     -19.583097      731.56827    
    607000   302.4541       0.011271465    7.5054126      750.39697     -15.451227      734.94574    
    608000   302.54595      0.011271465    5.6279251      750.62485     -16.596848      734.028      
    609000   299.04851      0.011271465    5.2952916      741.9476      -21.102647      720.84495    
    610000   296.57861      0.011271465    9.351643       735.81971     -17.990849      717.82886    
    611000   307.50328      0.011271465    2.4546427      762.92412     -20.820663      742.10346    
    612000   302.38651      0.011271465    6.0244732      750.22926     -21.532868      728.69639    
    613000   306.75321      0.011271465    8.2535492      761.06317     -23.308563      737.75461    
    614000   300.40731      0.011271465    5.6785791      745.31881     -23.333472      721.98534    
    615000   297.5117       0.011271465    3.3791476      738.13472     -20.52622       717.6085     
    616000   290.4711       0.011271465    7.2730686      720.6668      -20.596727      700.07007    
    617000   313.79908      0.011271465    9.8167292      778.54417     -24.3958        754.14837    
    618000   316.38704      0.011271465    4.5262574      784.96496     -21.321632      763.64333    
    619000   293.66189      0.011271465    4.6705215      728.58325     -16.648311      711.93494    
    620000   296.21566      0.011271465    8.6186582      734.91922     -21.327547      713.59168    
    621000   318.08412      0.011271465    5.3173762      789.17548     -19.582358      769.59312    
    622000   299.91458      0.011271465    2.3750019      744.09633     -17.969012      726.12732    
    623000   282.45396      0.011271465   -0.017862346    700.77607     -14.406985      686.36909    
    624000   296.12799      0.011271465    9.7591628      734.70171     -14.279773      720.42193    
    625000   305.01538      0.011271465    8.0224721      756.75157     -13.607371      743.1442     
    626000   306.02049      0.011271465    1.2726599      759.24526     -12.555714      746.68955    
    627000   281.7309       0.011271465    12.745511      698.98212     -16.283686      682.69843    
    628000   300.4193       0.011271465    7.6750435      745.34857     -12.286643      733.06192    
    629000   308.04889      0.011271465    5.5247112      764.27779     -12.033657      752.24413    
    630000   305.68114      0.011271465    3.8160892      758.40334     -13.856573      744.54677    
    631000   295.05039      0.011271465    7.1424484      732.02816     -11.689037      720.33912    
    632000   300.61323      0.011271465    9.6056492      745.82971     -11.561852      734.26786    
    633000   310.02692      0.011271465    5.4070205      769.18533     -18.043269      751.14206    
    634000   313.43678      0.011271465    8.3788449      777.6453      -19.963786      757.68151    
    635000   305.9066       0.011271465    3.467077       758.9627      -20.803674      738.15903    
    636000   295.70157      0.011271465    6.1737152      733.64375     -17.816404      715.82734    
    637000   302.33621      0.011271465    6.4333305      750.10446     -18.841163      731.2633     
    638000   319.51215      0.011271465    6.4974308      792.71845     -19.977155      772.74129    
    639000   300.72337      0.011271465    3.7780703      746.10297     -20.311809      725.79116    
    640000   292.34001      0.011271465    5.768337       725.30361     -20.858951      704.44466    
    641000   296.47377      0.011271465    5.8329801      735.55959     -18.660113      716.89948    
    642000   297.38587      0.011271465    7.3656562      737.82254     -21.66031       716.16223    
    643000   303.03838      0.011271465    5.2131722      751.84656     -23.082278      728.76428    
    644000   295.10967      0.011271465    5.7043102      732.17521     -26.798735      705.37648    
    645000   287.63322      0.011271465    5.2634541      713.62595     -25.807309      687.81864    
    646000   302.66796      0.011271465    4.8690456      750.92756     -21.369471      729.55809    
    647000   307.08366      0.011271465    7.9838517      761.88301     -19.840026      742.04299    
    648000   303.92645      0.011271465    7.8013277      754.04991     -23.481589      730.56832    
    649000   292.69227      0.011271465    3.3675693      726.17759     -21.789133      704.38845    
    650000   288.75411      0.011271465    4.7519041      716.40691     -25.103371      691.30354    
    651000   299.91161      0.011271465    5.6579032      744.08898     -25.7399        718.34908    
    652000   302.29248      0.011271465    6.2680368      749.99598     -21.757931      728.23805    
    653000   302.56607      0.011271465    6.4859506      750.67475     -19.923774      730.75098    
    654000   288.47755      0.011271465    4.5395415      715.72077     -21.251087      694.46968    
    655000   298.30787      0.011271465    5.0393297      740.11004     -18.575996      721.53405    
    656000   302.09715      0.011271465    6.2221976      749.51135     -20.51695       728.9944     
    657000   297.42011      0.011271465    5.7665572      737.9075      -20.402049      717.50545    
    658000   292.27583      0.011271465    5.6134947      725.14438     -19.853553      705.29083    
    659000   299.82578      0.011271465    6.2056941      743.87603     -19.876253      723.99978    
    660000   306.16251      0.011271465    8.527566       759.59762     -19.860567      739.73705    
    661000   301.38385      0.011271465    7.6905792      747.74163     -19.226058      728.51557    
    662000   309.40995      0.011271465    5.9373825      767.65462     -19.991451      747.66317    
    663000   301.96479      0.011271465    5.8033256      749.18298     -16.102877      733.0801     
    664000   300.54047      0.011271465    5.9912548      745.64919     -16.83472       728.81447    
    665000   288.716        0.011271465    4.8709148      716.31234     -18.810835      697.50151    
    666000   298.05015      0.011271465    6.8377282      739.47064     -19.998594      719.47205    
    667000   305.46642      0.011271465    6.415747       757.87061     -20.428887      737.44172    
    668000   283.16496      0.011271465    5.0054221      702.54007     -20.831873      681.7082     
    669000   278.37646      0.011271465    7.3113866      690.65967     -24.121139      666.53853    
    670000   298.84085      0.011271465    5.7607049      741.4324      -23.593233      717.83916    
    671000   319.17941      0.011271465    5.2251098      791.89292     -21.466635      770.42629    
    672000   302.12815      0.011271465    6.5302167      749.58827     -17.513982      732.07429    
    673000   293.9996       0.011271465    6.3779132      729.4211      -20.704057      708.71705    
    674000   303.05401      0.011271465    5.9970346      751.88536     -23.585108      728.30025    
    675000   305.85831      0.011271465    6.0709278      758.84289     -26.461158      732.38173    
    676000   295.70124      0.011271465    4.1956556      733.64292     -22.392773      711.25014    
    677000   306.16803      0.011271465    7.748883       759.61132     -18.101587      741.50973    
    678000   300.47646      0.011271465    7.9861585      745.49038     -24.097712      721.39267    
    679000   304.4239       0.011271465    5.8255951      755.28408     -19.842848      735.44124    
    680000   293.04053      0.011271465    8.9677716      727.04164     -20.863391      706.17825    
    681000   309.46236      0.011271465    5.9527766      767.78466     -16.326034      751.45862    
    682000   314.98345      0.011271465    6.3771225      781.48262     -15.994443      765.48817    
    683000   295.39461      0.011271465    5.8659213      732.88217     -17.104719      715.77745    
    684000   287.20881      0.011271465    6.5895201      712.57297     -20.531659      692.04131    
    685000   302.82534      0.011271465    4.6080857      751.31801     -18.134617      733.18339    
    686000   297.48259      0.011271465    4.9408824      738.0625      -18.708982      719.35352    
    687000   289.94453      0.011271465    6.2551239      719.36038     -15.035299      704.32508    
    688000   310.4024       0.011271465    6.5324918      770.1169      -16.124482      753.99242    
    689000   303.11102      0.011271465    3.8966916      752.0268      -18.940184      733.08662    
    690000   292.11119      0.011271465    7.5628662      724.73591     -19.180205      705.55571    
    691000   302.06936      0.011271465    6.351411       749.44241     -19.356515      730.0859     
    692000   304.28162      0.011271465    6.3265785      754.93109     -21.258261      733.67283    
    693000   296.55139      0.011271465    6.1332857      735.75217     -16.627448      719.12472    
    694000   301.05905      0.011271465    6.4830089      746.93581     -16.393653      730.54216    
    695000   299.09087      0.011271465    6.7243662      742.05269     -16.626565      725.42612    
    696000   302.927        0.011271465    6.4041288      751.57023     -17.126625      734.44361    
    697000   298.85516      0.011271465    6.0073768      741.46789     -19.276541      722.19134    
    698000   300.79973      0.011271465    6.2404391      746.29242     -18.73443       727.55799    
    699000   301.23976      0.011271465    5.4762828      747.38414     -17.719617      729.66452    
    700000   288.9725       0.011271465    6.0828409      716.94875     -20.548941      696.3998     
    701000   304.87232      0.011271465    9.306192       756.39664     -21.351064      735.04557    
    702000   304.32474      0.011271465    6.0393479      755.03807     -19.875472      735.1626     
    703000   295.02163      0.011271465    6.1680722      731.9568      -19.640656      712.31614    
    704000   295.73389      0.011271465    6.8503764      733.72394     -21.315639      712.4083     
    705000   309.81045      0.011271465    9.6059592      768.64827     -17.17894       751.46933    
    706000   311.36983      0.011271465    6.424408       772.51712     -17.184252      755.33287    
    707000   297.07902      0.011271465    4.6632451      737.06123     -15.846663      721.21457    
    708000   302.51145      0.011271465    8.8624429      750.53925     -18.04958       732.48967    
    709000   314.67502      0.011271465    4.6432614      780.7174      -22.708431      758.00897    
    710000   295.89926      0.011271465    6.0272475      734.13422     -14.877858      719.25636    
    711000   300.96816      0.011271465    9.2615933      746.71031     -20.107535      726.60278    
    712000   308.36092      0.011271465    6.5353279      765.05194     -17.688725      747.36321    
    713000   301.69427      0.011271465    5.1564527      748.5118      -20.643626      727.86818    
    714000   287.70225      0.011271465    6.1360336      713.79722     -20.631114      693.16611    
    715000   305.54437      0.011271465    6.7957047      758.06402     -21.523471      736.54054    
    716000   291.71114      0.011271465    1.6687912      723.74338     -23.873831      699.86955    
    717000   296.13098      0.011271465    5.0219972      734.70912     -25.343109      709.36601    
    718000   298.22892      0.011271465    5.819006       739.91417     -27.774275      712.13989    
    719000   306.42415      0.011271465    6.9038188      760.24675     -20.703728      739.54303    
    720000   294.805        0.011271465    5.4419895      731.41933     -20.5536        710.86573    
    721000   296.86584      0.011271465    5.7828991      736.53233     -20.705603      715.82673    
    722000   296.82656      0.011271465    6.2787946      736.43488     -19.952506      716.48238    
    723000   307.0059       0.011271465    4.2150862      761.69009     -19.582853      742.10724    
    724000   300.29008      0.011271465    5.4688425      745.02798     -19.707125      725.32085    
[...]
   3823000   320.21888      0.011271465    9.2577041      794.47186     -21.042715      773.42915    
   3824000   298.48866      0.011271465    2.3065837      740.5586      -16.457373      724.10123    
   3825000   292.7027       0.011271465    1.766247       726.20348     -16.27994       709.92354    
   3826000   299.993        0.011271465    9.4966868      744.29091     -15.591579      728.69933    
   3827000   303.32565      0.011271465    10.100074      752.55929     -14.79909       737.7602     
   3828000   311.27686      0.011271465    6.3272406      772.28647     -13.486625      758.79984    
   3829000   297.30886      0.011271465    6.123201       737.63147     -15.170189      722.46128    
   3830000   292.37606      0.011271465    4.5925057      725.39306     -13.738884      711.65417    
   3831000   309.09767      0.011271465    8.2084698      766.87984     -14.895694      751.98414    
   3832000   307.39366      0.011271465    4.5221778      762.65215     -12.971065      749.68109    
   3833000   296.59852      0.011271465    5.9388311      735.8691      -13.72845       722.14065    
   3834000   305.46803      0.011271465    6.6827972      757.8746      -13.297057      744.57755    
   3835000   306.47211      0.011271465    5.8298518      760.36576     -17.603818      742.76194    
   3836000   299.85078      0.011271465    1.6659079      743.93804     -19.505482      724.43256    
   3837000   303.77815      0.011271465    8.792703       753.68197     -20.293375      733.38859    
   3838000   304.09799      0.011271465    8.991782       754.4755      -16.25968       738.21582    
   3839000   293.27313      0.011271465    5.8888524      727.61872     -15.244847      712.37388    
   3840000   294.39629      0.011271465    5.0572209      730.40531     -19.064522      711.34079    
   3841000   310.96606      0.011271465    5.6903509      771.51537     -15.0284        756.48698    
   3842000   294.57385      0.011271465    8.8085443      730.84585     -18.047854      712.798      
   3843000   284.34253      0.011271465    5.3848871      705.46165     -16.516372      688.94528    
   3844000   292.88204      0.011271465    5.7213898      726.64843     -19.869427      706.779      
   3845000   305.65176      0.011271465    6.5998388      758.33044     -17.385501      740.94494    
   3846000   312.76293      0.011271465    6.4518827      775.97345     -18.074567      757.89888    
   3847000   300.91096      0.011271465    6.0241187      746.56838     -15.148715      731.41966    
   3848000   307.428        0.011271465    5.9586504      762.73734     -14.671032      748.06631    
   3849000   299.67382      0.011271465    6.1938         743.499       -18.077181      725.42182    
   3850000   296.20109      0.011271465    5.2440846      734.88307     -19.206411      715.67666    
   3851000   305.07727      0.011271465    13.257265      756.90513     -19.873381      737.03174    
   3852000   299.119        0.011271465    8.2721413      742.12249     -18.037238      724.08525    
   3853000   296.68993      0.011271465    4.3694334      736.09589     -15.541797      720.5541     
   3854000   295.23152      0.011271465    6.111646       732.47753     -15.640469      716.83707    
   3855000   301.62239      0.011271465    10.580349      748.33347     -15.192465      733.141      
   3856000   304.37018      0.011271465    4.5382554      755.1508      -16.227223      738.92358    
   3857000   305.94593      0.011271465    5.796771       759.0603      -19.006181      740.05412    
   3858000   290.32384      0.011271465    8.092051       720.30145     -14.553691      705.74776    
   3859000   292.42731      0.011271465    8.665759       725.52022     -14.451765      711.06845    
   3860000   304.918        0.011271465    4.2538738      756.50996     -16.593548      739.91641    
   3861000   310.84232      0.011271465    5.9420701      771.20836     -18.48691       752.72144    
   3862000   299.88604      0.011271465    10.744555      744.02552     -19.780966      724.24456    
   3863000   289.14798      0.011271465    8.0348501      717.38412     -23.203405      694.18071    
   3864000   297.85046      0.011271465    2.5800228      738.97521     -20.529119      718.44609    
   3865000   313.99512      0.011271465    1.8785441      779.03055     -20.408821      758.62173    
   3866000   300.02023      0.011271465    7.3902996      744.35846     -18.419138      725.93932    
   3867000   286.79859      0.011271465    8.801954       711.5552      -18.077702      693.4775     
   3868000   293.24993      0.011271465   -0.29110395     727.56117     -16.951872      710.60929    
   3869000   305.07969      0.011271465    6.2811492      756.91111     -11.94193       744.96918    
   3870000   306.64693      0.011271465    11.583138      760.79948     -13.242014      747.55747    
   3871000   295.04879      0.011271465    5.0763249      732.02418     -16.82165       715.20253    
   3872000   302.2773       0.011271465    5.1939302      749.95832     -15.292706      734.66561    
   3873000   310.30378      0.011271465    10.714042      769.87224     -15.226759      754.64548    
   3874000   294.33455      0.011271465    6.8906142      730.25212     -14.220775      716.03135    
   3875000   292.90965      0.011271465    3.7979765      726.71693     -13.536154      713.18077    
   3876000   304.71918      0.011271465    9.0240794      756.01668     -16.659211      739.35746    
   3877000   304.86848      0.011271465    5.3730654      756.3871      -19.102724      737.28438    
   3878000   301.74018      0.011271465    5.8573754      748.62571     -17.247355      731.37836    
   3879000   304.54393      0.011271465    5.7611436      755.58187     -15.907352      739.67452    
   3880000   303.0803       0.011271465    6.5092529      751.95058     -19.218189      732.73239    
   3881000   293.58517      0.011271465    5.4758477      728.39291     -20.838191      707.55472    
   3882000   299.11504      0.011271465    4.248017       742.11265     -16.916432      725.19622    
   3883000   308.92738      0.011271465    6.7367744      766.45734     -18.200107      748.25724    
   3884000   314.02825      0.011271465    5.9210355      779.11274     -18.164621      760.94812    
   3885000   299.75645      0.011271465    6.283222       743.70402     -16.207864      727.49616    
   3886000   298.4505       0.011271465    6.37248        740.46392     -15.325801      725.13811    
   3887000   292.76443      0.011271465    8.293943       726.35663     -15.976415      710.38021    
   3888000   302.96047      0.011271465    5.0028314      751.65328     -18.692937      732.96034    
   3889000   296.53588      0.011271465    4.8485417      735.71369     -18.256571      717.45712    
   3890000   312.1119       0.011271465    5.3959969      774.35823     -18.393184      755.96505    
   3891000   304.84987      0.011271465    8.1908238      756.34093     -21.252549      735.08838    
   3892000   286.53958      0.011271465    4.8280132      710.9126      -19.405265      691.50733    
   3893000   294.97656      0.011271465    6.0265265      731.84497     -17.755609      714.08936    
   3894000   293.94074      0.011271465    7.2625549      729.27507     -18.084641      711.19043    
   3895000   289.01733      0.011271465    5.6531435      717.05995     -19.368013      697.69194    
   3896000   292.61047      0.011271465    5.8207328      725.97465     -16.6615        709.31315    
   3897000   287.58375      0.011271465    6.4683804      713.50321     -14.644144      698.85906    
   3898000   301.76817      0.011271465    6.6090514      748.69515     -17.764259      730.93089    
   3899000   313.98885      0.011271465    5.9256248      779.01498     -19.161971      759.85301    
   3900000   281.70836      0.011271465    6.0531039      698.92621     -14.172821      684.75339    
   3901000   296.31573      0.011271465    6.524442       735.1675      -17.401095      717.76641    
   3902000   314.59366      0.011271465    5.0975213      780.51555     -16.811544      763.70401    
   3903000   300.07797      0.011271465    4.780759       744.5017      -16.533999      727.96771    
   3904000   283.23552      0.011271465    7.7579884      702.71514     -17.724305      684.99083    
   3905000   306.17245      0.011271465    8.2588391      759.62228     -16.112351      743.50993    
   3906000   316.39648      0.011271465   -4.7199502      784.98838     -16.796194      768.19219    
   3907000   293.51374      0.011271465    6.038086       728.21568     -17.755634      710.46004    
   3908000   293.64479      0.011271465    9.9299052      728.54081     -18.510219      710.03059    
   3909000   315.14682      0.011271465   -3.1596784      781.88796     -17.083548      764.80441    
   3910000   291.53909      0.011271465    9.0313325      723.31652     -21.45075       701.86577    
   3911000   299.11757      0.011271465    5.7392858      742.11892     -19.258714      722.86021    
   3912000   305.67528      0.011271465    18.147427      758.38879     -17.485215      740.90357    
   3913000   299.32078      0.011271465    1.0379139      742.62311     -16.489934      726.13317    
   3914000   291.74844      0.011271465    10.970063      723.83593     -14.883555      708.95238    
   3915000   308.96244      0.011271465    14.92125       766.54434     -14.527502      752.01684    
   3916000   295.45647      0.011271465    5.9354376      733.03566     -18.748375      714.28728    
   3917000   290.42004      0.011271465    7.2171316      720.54012     -17.517183      703.02294    
   3918000   311.20603      0.011271465    19.976863      772.11073     -20.962355      751.14838    
   3919000   302.40612      0.011271465    0.16663481     750.27791     -19.766427      730.51149    
   3920000   292.16655      0.011271465    7.4045343      724.87326     -23.697645      701.17562    
   3921000   300.31552      0.011271465    13.991348      745.09109     -24.145316      720.94577    
   3922000   303.78178      0.011271465    3.9821053      753.69096     -25.261704      728.42926    
   3923000   308.7507       0.011271465    3.8798678      766.019       -24.029931      741.98906    
   3924000   289.79341      0.011271465    1.1483748      718.98544     -20.321907      698.66353    
   3925000   311.39517      0.011271465    10.531287      772.57999     -23.20034       749.37965    
   3926000   303.04417      0.011271465    9.4777726      751.86094     -20.644439      731.21651    
   3927000   304.33975      0.011271465    5.2092777      755.07531     -23.298311      731.777      
   3928000   312.51598      0.011271465    0.5132326      775.36076     -20.014232      755.34653    
   3929000   290.12975      0.011271465    3.5351854      719.8199      -20.615855      699.20404    
   3930000   299.48549      0.011271465    6.2941083      743.03177     -23.131268      719.9005     
   3931000   309.0386       0.011271465    12.96826       766.73327     -20.441428      746.29185    
   3932000   312.13181      0.011271465    10.918662      774.40763     -20.009257      754.39838    
   3933000   302.44609      0.011271465    4.594046       750.37708     -18.297693      732.07939    
   3934000   290.82361      0.011271465    1.2354158      721.54138     -19.395542      702.14584    
   3935000   305.38637      0.011271465    7.8795994      757.67199     -17.705514      739.96648    
   3936000   322.88769      0.011271465    6.0089689      801.09326     -20.112435      780.98083    
   3937000   295.64339      0.011271465    5.4395987      733.49941     -22.206197      711.29321    
   3938000   294.98712      0.011271465    7.3988655      731.87118     -23.875333      707.99585    
   3939000   305.72809      0.011271465    3.2658354      758.51983     -23.181432      735.3384     
   3940000   300.85205      0.011271465    5.7892976      746.42223     -23.688187      722.73404    
   3941000   307.98172      0.011271465    10.278583      764.11113     -24.098021      740.0131     
   3942000   309.05528      0.011271465    8.6128212      766.77467     -19.915711      746.85896    
   3943000   302.55734      0.011271465    1.4134795      750.6531      -22.506809      728.14629    
   3944000   295.97005      0.011271465    5.460099       734.30985     -24.112965      710.19689    
   3945000   308.67575      0.011271465    5.3489426      765.83305     -24.827388      741.00566    
   3946000   310.43839      0.011271465    7.0422925      770.20621     -21.228362      748.97785    
   3947000   293.09429      0.011271465    5.5076667      727.17501     -19.023733      708.15127    
   3948000   300.38867      0.011271465    6.7797833      745.27256     -19.43612       725.83644    
   3949000   307.15009      0.011271465    5.9655348      762.04784     -18.300438      743.7474     
   3950000   295.34102      0.011271465    6.3108139      732.74922     -20.661284      712.08793    
   3951000   301.55496      0.011271465    5.6231174      748.16618     -19.573186      728.59299    
   3952000   294.91073      0.011271465    6.2675816      731.68166     -18.762129      712.91953    
   3953000   302.06064      0.011271465    14.077655      749.42078     -18.155621      731.26516    
   3954000   299.88423      0.011271465    5.5068983      744.02103     -18.388166      725.63286    
   3955000   300.96229      0.011271465    5.0878269      746.69573     -19.718804      726.97692    
   3956000   302.7731       0.011271465    6.1921568      751.18841     -18.40824       732.78017    
   3957000   306.5936       0.011271465    7.3012229      760.66718     -18.045415      742.62177    
   3958000   307.30273      0.011271465    7.6603566      762.42655     -16.140596      746.28596    
   3959000   274.89591      0.011271465    8.0120302      682.02434     -19.869936      662.1544     
   3960000   298.02007      0.011271465    5.017635       739.39602     -20.819641      718.57638    
   3961000   307.67344      0.011271465    5.185212       763.34628     -21.682909      741.66337    
   3962000   304.49227      0.011271465    8.8145514      755.45372     -19.693306      735.76041    
   3963000   285.7181       0.011271465    5.0592948      708.87448     -20.954411      687.92007    
   3964000   302.89919      0.011271465    4.7264532      751.50125     -18.363357      733.13789    
   3965000   313.81019      0.011271465    13.23888       778.57172     -16.259314      762.31241    
   3966000   298.33087      0.011271465    10.244608      740.16711     -18.025899      722.14121    
   3967000   306.4367       0.011271465    4.3193245      760.27789     -15.153452      745.12444    
   3968000   310.45393      0.011271465    14.413664      770.24476     -14.239139      756.00562    
   3969000   291.12671      0.011271465    5.2702477      722.2934      -13.78271       708.51069    
   3970000   293.42922      0.011271465   -10.15093       728.00598     -15.160572      712.84541    
   3971000   312.50216      0.011271465    2.4351457      775.32648     -17.276715      758.04977    
   3972000   309.40752      0.011271465    21.716929      767.64859     -18.478417      749.17017    
   3973000   290.73612      0.011271465    5.8013974      721.32434     -15.028959      706.29538    
   3974000   306.95657      0.011271465    6.2738565      761.5677      -15.013207      746.5545     
   3975000   296.83659      0.011271465    14.078731      736.45977     -14.648055      721.81172    
   3976000   305.04689      0.011271465    7.6879832      756.82974     -15.401573      741.42817    
   3977000   303.02813      0.011271465   -0.60906685     751.82115     -14.197781      737.62337    
   3978000   289.68746      0.011271465    8.7898755      718.72258     -15.199823      703.52276    
   3979000   292.38412      0.011271465    7.7805159      725.41306     -13.447157      711.96591    
   3980000   302.292        0.011271465    6.430139       749.99477     -14.875863      735.11891    
   3981000   299.1049       0.011271465    0.18893373     742.0875      -17.351034      724.73646    
   3982000   305.9631       0.011271465    6.0945771      759.10289     -14.355864      744.74703    
   3983000   300.33581      0.011271465    7.2602237      745.14142     -17.206495      727.93492    
   3984000   291.50421      0.011271465    3.6947633      723.22997     -15.679312      707.55066    
   3985000   299.93349      0.011271465    6.2548746      744.14326     -17.153701      726.98956    
   3986000   297.31619      0.011271465    6.8583133      737.64966     -18.504895      719.14477    
   3987000   300.91257      0.011271465    5.8222166      746.57239     -20.064035      726.50835    
   3988000   294.6719       0.011271465    6.1140436      731.0891      -16.881691      714.20741    
   3989000   320.84526      0.011271465    7.0672161      796.02594     -17.216572      778.80936    
   3990000   280.36905      0.011271465    5.3031711      695.60334     -15.947617      679.65572    
   3991000   291.59         0.011271465    5.8118307      723.44283     -14.676279      708.76655    
   3992000   303.85053      0.011271465    6.3316166      753.86154     -18.04805       735.81349    
   3993000   309.86148      0.011271465    6.9635256      768.77487     -16.621118      752.15375    
   3994000   300.80966      0.011271465    5.0998957      746.31705     -21.368705      724.94834    
   3995000   284.14124      0.011271465    8.0007833      704.96224     -22.530408      682.43183    
   3996000   308.32127      0.011271465    6.4708149      764.95357     -23.484788      741.46878    
   3997000   305.5          0.011271465    6.3656999      757.95392     -22.740427      735.21349    
   3998000   297.79247      0.011271465    5.50097        738.83133     -20.946999      717.88433    
   3999000   294.52867      0.011271465    8.1150597      730.73376     -17.817102      712.91665    
   4000000   300.24902      0.011271465    6.7608022      744.92609     -17.341892      727.5842     
Loop time of 12414.1 on 1 procs for 4000000 steps with 1500 atoms

Performance: 6.960 ns/day, 3.448 hours/ns, 322.213 timesteps/s, 483.320 katom-step/s
99.3% CPU use with 1 MPI tasks x 1 OpenMP threads

MPI task timing breakdown:
Section |  min time  |  avg time  |  max time  |%varavg| %total
---------------------------------------------------------------
Pair    | 821.65     | 821.65     | 821.65     |   0.0 |  6.62
Bond    | 182.48     | 182.48     | 182.48     |   0.0 |  1.47
Kspace  | 10538      | 10538      | 10538      |   0.0 | 84.89
Neigh   | 0.044498   | 0.044498   | 0.044498   |   0.0 |  0.00
Comm    | 29.862     | 29.862     | 29.862     |   0.0 |  0.24
Output  | 0.13303    | 0.13303    | 0.13303    |   0.0 |  0.00
Modify  | 821.21     | 821.21     | 821.21     |   0.0 |  6.62
Other   |            | 20.34      |            |       |  0.16

Nlocal:           1500 ave        1500 max        1500 min
Histogram: 1 0 0 0 0 0 0 0 0 0
Nghost:            999 ave         999 max         999 min
Histogram: 1 0 0 0 0 0 0 0 0 0
Neighs:              0 ave           0 max           0 min
Histogram: 1 0 0 0 0 0 0 0 0 0

Total # of neighbors = 0
Ave neighs/atom = 0
Ave special neighs/atom = 2
Neighbor list builds = 17733
Dangerous builds = 0
write_data	last_conf.data pair ij
System init for write_data ...
PPPM initialization ...
  using 12-bit tables for long-range coulomb (src/kspace.cpp:342)
  G vector (1/distance) = 0.16201075
  grid = 30 30 30
  stencil order = 5
  estimated absolute RMS force accuracy = 0.032622673
  estimated relative force accuracy = 9.8242209e-05
  using double precision FFTW3
  3d grid and FFT values/proc = 42875 27000
Generated 1 of 1 mixed pair_coeff terms from arithmetic mixing rule
Total wall time: 3:26:54
