LAMMPS data file via write_data, version 29 Aug 2024, timestep = 0, units = real

1500 atoms
2 atom types
1000 bonds
1 bond types
500 angles
1 angle types

0 99 xlo xhi
0 99 ylo yhi
0 99 zlo zhi

Masses

1 12.0107
2 15.9994

PairIJ Coeffs # lj/cut/coul/long/gpu

1 1 0.053649 2.8 12
1 2 0.0917684 2.925 12
2 2 0.156973 3.05 12

Bond Coeffs # harmonic

1 0 1.16

Angle Coeffs # harmonic

1 0 180

Atoms # full

1 1 1 0.7 7.293990468743253 28.09780816784958 9.861877047858144 0 0 0
2 1 2 -0.35 6.286329724501037 28.335494193483136 9.338689531061586 0 0 0
3 1 2 -0.35 8.301651212985469 27.86012214221602 10.385064564654702 0 0 0
4 2 1 0.7 22.56754335182139 23.70111406208068 67.62404138996455 0 0 0
5 2 2 -0.35 22.914863207950972 24.201681152892892 66.6369236132358 0 0 0
6 2 2 -0.35 22.220223495691805 23.20054697126847 68.6111591666933 0 0 0
7 3 1 0.7 37.263641134027225 16.016539595563216 8.980982630970413 0 0 0
8 3 2 -0.35 36.80103227907425 14.952776380726707 8.98004985029438 0 0 0
9 3 2 -0.35 37.7262499889802 17.080302810399726 8.981915411646446 0 0 0
10 4 1 0.7 67.37507871974961 10.948042831825113 61.75587448466377 0 0 0
11 4 2 -0.35 66.2900194019906 11.147086769976275 62.11452164780554 0 0 0
12 4 2 -0.35 68.46013803750861 10.748998893673951 61.397227321522 0 0 0
13 5 1 0.7 14.982463743995162 53.26814532664984 20.718505003824134 0 0 0
14 5 2 -0.35 14.80980496895074 53.55312377617007 21.82961986319251 0 0 0
15 5 2 -0.35 15.155122519039583 52.983166877129605 19.60739014445576 0 0 0
16 6 1 0.7 32.91359927221835 65.86296817374554 39.906096141275995 0 0 0
17 6 2 -0.35 31.826125087828935 66.0365278189358 39.541573236854326 0 0 0
18 6 2 -0.35 34.00107345660776 65.68940852855529 40.270619045697664 0 0 0
19 7 1 0.7 75.75784642564032 23.124875736946645 84.78651086231065 0 0 0
20 7 2 -0.35 74.73647382607516 23.38755185319397 84.30339672381879 0 0 0
21 7 2 -0.35 76.77921902520549 22.86219962069932 85.2696250008025 0 0 0
22 8 1 0.7 0.8880628551766568 75.67240695407261 72.1436770982778 0 0 0
23 8 2 -0.35 0.4131694554469534 76.689839235896 72.43506654694887 0 0 0
24 8 2 -0.35 1.3629562549063603 74.65497467224922 71.85228764960674 0 0 0
25 9 1 0.7 65.78099075508351 48.11162068839726 79.00890989276064 0 0 0
26 9 2 -0.35 65.44023375203473 48.82363926355098 78.15890153191395 0 0 0
27 9 2 -0.35 66.12174775813229 47.39960211324354 79.85891825360733 0 0 0
28 10 1 0.7 15.748567628091466 59.176125333260806 19.138476114318927 0 0 0
29 10 2 -0.35 15.75514693806581 58.21658335904355 19.79027049324184 0 0 0
30 10 2 -0.35 15.741988318117123 60.135667307478066 18.48668173539601 0 0 0
31 11 1 0.7 9.368053358219589 38.87279159662909 34.00836454518529 0 0 0
32 11 2 -0.35 8.973642386667043 38.84361351778143 35.09886380022113 0 0 0
33 11 2 -0.35 9.762464329772135 38.90196967547676 32.91786529014944 0 0 0
34 12 1 0.7 51.58291092914665 10.983986167695367 71.85552045603075 0 0 0
35 12 2 -0.35 50.66357215051988 11.667394458976954 72.03819316203969 0 0 0
36 12 2 -0.35 52.502249707773416 10.30057787641378 71.6728477500218 0 0 0
37 13 1 0.7 73.73230450867317 35.84187726995064 78.43127606037598 0 0 0
38 13 2 -0.35 73.8172746854953 34.69103471194217 78.31320203390388 0 0 0
39 13 2 -0.35 73.64733433185103 36.992719827959114 78.54935008684808 0 0 0
40 14 1 0.7 9.456746739082387 44.54244375766368 85.85223505359713 0 0 0
41 14 2 -0.35 8.75572733357333 44.20161181191918 86.71130744743814 0 0 0
42 14 2 -0.35 10.157766144591445 44.88327570340819 84.99316265975611 0 0 0
43 15 1 0.7 92.51454580692321 96.97137695828982 59.932537977086625 0 0 0
44 15 2 -0.35 91.72790872970941 96.97749192645003 59.08003301175391 0 0 0
45 15 2 -0.35 93.301182884137 96.96526199012962 60.78504294241934 0 0 0
46 16 1 0.7 60.165780895001156 20.279502284377582 79.5948935340135 0 0 0
47 16 2 -0.35 59.016253591380256 20.129326960982034 79.55446643328764 0 0 0
48 16 2 -0.35 61.315308198622056 20.42967760777313 79.63532063473934 0 0 0
49 17 1 0.7 63.375626164663416 13.148949497914385 26.394211447049965 0 0 0
50 17 2 -0.35 62.40389969468612 13.720638267758327 26.66719426332195 0 0 0
51 17 2 -0.35 64.34735263464071 12.577260728070444 26.12122863077798 0 0 0
52 18 1 0.7 87.511790568713 66.66408835941185 40.333056634912765 0 0 0
53 18 2 -0.35 86.69615203182452 67.28587381285679 39.791100338679655 0 0 0
54 18 2 -0.35 88.32742910560147 66.0423029059669 40.875012931145875 0 0 0
55 19 1 0.7 24.682862978746584 34.87808379385531 16.95432332621623 0 0 0
56 19 2 -0.35 24.503122340238598 35.18970239560992 15.851514571304824 0 0 0
57 19 2 -0.35 24.86260361725457 34.5664651921007 18.057132081127634 0 0 0
58 20 1 0.7 29.312143716175175 25.199437756184224 4.950368188298479 0 0 0
59 20 2 -0.35 30.232602842606052 25.134745879754682 5.6533404193959305 0 0 0
60 20 2 -0.35 28.391684589744298 25.264129632613766 4.247395957201028 0 0 0
61 21 1 0.7 40.83814073253336 98.63129168824818 40.11940438725026 0 0 0
62 21 2 -0.35 41.64777740366242 97.90282120321442 40.518677743733925 0 0 0
63 21 2 -0.35 40.028504061404306 0.3597621732819505 39.7201310307666 0 1 0
64 22 1 0.7 96.82953651520869 52.02021111222925 34.68816323703535 0 0 0
65 22 2 -0.35 95.90423150267888 51.335837710295785 34.543098835774295 0 0 0
66 22 2 -0.35 97.75484152773849 52.70458451416271 34.8332276382964 0 0 0
67 23 1 0.7 91.95952485313617 74.73420665959557 44.81132782288423 0 0 0
68 23 2 -0.35 92.72216359838264 75.33391819998074 44.175459744917 0 0 0
69 23 2 -0.35 91.19688610788971 74.1344951192104 45.44719590085146 0 0 0
70 24 1 0.7 50.98671921528257 88.78985125422005 64.03002967640293 0 0 0
71 24 2 -0.35 50.16728150012263 89.52972806854336 64.38598491319578 0 0 0
72 24 2 -0.35 51.80615693044251 88.04997443989674 63.674074439610074 0 0 0
73 25 1 0.7 22.708771304091798 21.31930787084592 32.60738530736761 0 0 0
74 25 2 -0.35 21.664950637163606 20.835941612213794 32.457734128589856 0 0 0
75 25 2 -0.35 23.75259197101999 21.802674129478042 32.75703648614536 0 0 0
76 26 1 0.7 67.32486092733446 57.937605710205446 92.33917142280339 0 0 0
77 26 2 -0.35 66.24379478391707 58.23451403522742 92.04127640758948 0 0 0
78 26 2 -0.35 68.40592707075184 57.64069738518347 92.6370664380173 0 0 0
79 27 1 0.7 20.454103056552867 44.11007148405075 45.971432440900905 0 0 0
80 27 2 -0.35 19.607418435488782 44.03583491157773 45.18199334650475 0 0 0
81 27 2 -0.35 21.300787677616952 44.18430805652377 46.76087153529706 0 0 0
82 28 1 0.7 45.865034221608674 39.63016257697258 91.14243117819653 0 0 0
83 28 2 -0.35 45.03473749230489 40.18471488938891 91.73292171503954 0 0 0
84 28 2 -0.35 46.69533095091246 39.07561026455625 90.55194064135353 0 0 0
85 29 1 0.7 3.840811949149152 4.5264293498017025 43.69808211722322 0 0 0
86 29 2 -0.35 2.681439274307607 4.55122317397839 43.72706947849424 0 0 0
87 29 2 -0.35 5.000184623990697 4.501635525625015 43.6690947559522 0 0 0
88 30 1 0.7 51.666144170642895 23.885075995179395 90.47225098007928 0 0 0
89 30 2 -0.35 50.74631868130658 23.934110307207867 89.76718594378042 0 0 0
90 30 2 -0.35 52.585969659979206 23.836041683150924 91.17731601637814 0 0 0
91 31 1 0.7 26.122222192642383 70.1883917405216 71.29998294650575 0 0 0
92 31 2 -0.35 26.43440233427634 69.20284972814365 70.77381709716978 0 0 0
93 31 2 -0.35 25.810042051008427 71.17393375289954 71.82614879584172 0 0 0
94 32 1 0.7 42.81338192234439 32.509968842151565 14.04633004127365 0 0 0
95 32 2 -0.35 42.022010647880286 31.662514093975272 14.012389567698305 0 0 0
96 32 2 -0.35 43.604753196808495 33.35742359032786 14.080270514848996 0 0 0
97 33 1 0.7 60.66900368624786 62.94495476779758 1.8547823740424507 0 0 0
98 33 2 -0.35 59.52787217415619 62.78158900617185 1.9841288082407194 0 0 0
99 33 2 -0.35 61.81013519833954 63.10832052942332 1.725435939844182 0 0 0
100 34 1 0.7 87.32736053146765 35.94845237673654 87.63909581100526 0 0 0
101 34 2 -0.35 86.32874290818965 35.89604475788271 87.05120442310722 0 0 0
102 34 2 -0.35 88.32597815474564 36.00085999559037 88.2269871989033 0 0 0
103 35 1 0.7 28.283295565416708 58.34856795861785 69.38168049016114 0 0 0
104 35 2 -0.35 27.13708400469085 58.52677004928214 69.37511749227417 0 0 0
105 35 2 -0.35 29.429507126142568 58.17036586795356 69.38824348804812 0 0 0
106 36 1 0.7 75.90399813833832 4.496711052254173 39.2226552358934 0 0 0
107 36 2 -0.35 74.92336534108183 3.9418628583529314 39.498522592913844 0 0 0
108 36 2 -0.35 76.88463093559481 5.051559246155414 38.946787878872954 0 0 0
109 37 1 0.7 73.16654966034301 31.200141384825173 76.77625475673761 0 0 0
110 37 2 -0.35 72.00734299703906 31.197562380550785 76.73343816545957 0 0 0
111 37 2 -0.35 74.32575632364696 31.20272038909956 76.81907134801565 0 0 0
112 38 1 0.7 12.513696489163532 41.696893371500494 77.68689480875008 0 0 0
113 38 2 -0.35 12.556684598141237 42.30617555620648 76.70072685049631 0 0 0
114 38 2 -0.35 12.470708380185828 41.087611186794504 78.67306276700386 0 0 0
115 39 1 0.7 71.64105066267823 33.13848763291654 83.56164642822074 0 0 0
116 39 2 -0.35 70.85246379827481 32.42391664102266 83.09999823442573 0 0 0
117 39 2 -0.35 72.42963752708164 33.853058624810416 84.02329462201575 0 0 0
118 40 1 0.7 6.591519105989263 2.6616143615271963 84.75257418758821 0 0 0
119 40 2 -0.35 6.339840846497898 2.7021952524390462 85.88421513991902 0 0 0
120 40 2 -0.35 6.843197365480627 2.6210334706153464 83.6209332352574 0 0 0
121 41 1 0.7 24.51437079511321 74.0299534676736 88.42793119020197 0 0 0
122 41 2 -0.35 23.993338364373145 74.78267474167666 87.715515658521 0 0 0
123 41 2 -0.35 25.035403225853273 73.27723219367053 89.14034672188295 0 0 0
124 42 1 0.7 20.239513724688212 1.5071708348147435 86.02022073139446 0 0 0
125 42 2 -0.35 19.0968933945465 1.3406903517393307 86.13113975546977 0 0 0
126 42 2 -0.35 21.382134054829926 1.6736513178901562 85.90930170731914 0 0 0
127 43 1 0.7 44.8498325468273 5.135614526521235 85.27334724239695 0 0 0
128 43 2 -0.35 45.954892118834806 5.193380833689228 84.92534379978358 0 0 0
129 43 2 -0.35 43.744772974819796 5.077848219353242 85.62135068501033 0 0 0
130 44 1 0.7 65.14710296557615 86.35954243846216 5.829763233582379 0 0 0
131 44 2 -0.35 64.52632410992175 87.24186424517777 5.403451326914841 0 0 0
132 44 2 -0.35 65.76788182123056 85.47722063174655 6.256075140249917 0 0 0
133 45 1 0.7 69.83066681904283 98.01722765295636 15.545163237743623 0 0 0
134 45 2 -0.35 68.708702229642 97.785234335564 15.726752226440382 0 0 0
135 45 2 -0.35 70.95263140844366 98.24922097034873 15.363574249046863 0 0 0
136 46 1 0.7 6.558536757043813 42.32727563536134 79.52160351794288 0 0 0
137 46 2 -0.35 6.250787884595567 41.98454649103154 80.5862289756198 0 0 0
138 46 2 -0.35 6.866285629492058 42.67000477969114 78.45697806026595 0 0 0
139 47 1 0.7 19.59032606593814 79.61019022232396 23.467066598807957 0 0 0
140 47 2 -0.35 18.866716128183565 79.7584499823878 24.3614980950829 0 0 0
141 47 2 -0.35 20.313936003692714 79.46193046226013 22.572635102533013 0 0 0
142 48 1 0.7 93.98832616535404 17.79786110520263 49.6515951406451 0 0 0
143 48 2 -0.35 92.97827781805626 17.232883570654042 49.730352499516655 0 0 0
144 48 2 -0.35 94.99837451265182 18.36283863975122 49.57283778177354 0 0 0
145 49 1 0.7 23.359528822060454 68.60091237006752 21.534203724718747 0 0 0
146 49 2 -0.35 23.539700593276347 67.71017795352368 20.813280474961022 0 0 0
147 49 2 -0.35 23.179357050844562 69.49164678661135 22.25512697447647 0 0 0
148 50 1 0.7 80.36200134798978 86.15665566416301 60.91174758780363 0 0 0
149 50 2 -0.35 79.69220923259874 85.36403564891185 61.430141292996176 0 0 0
150 50 2 -0.35 81.03179346338081 86.94927567941417 60.39335388261109 0 0 0
151 51 1 0.7 83.74170821567145 62.88998079015406 67.90714011942369 0 0 0
152 51 2 -0.35 82.91779844901036 63.44491941620659 68.50615248800669 0 0 0
153 51 2 -0.35 84.56561798233254 62.33504216410154 67.30812775084068 0 0 0
154 52 1 0.7 43.30398715394735 61.11209639306743 85.00407828437355 0 0 0
155 52 2 -0.35 43.2528406946432 59.953256242963555 85.01265419294735 0 0 0
156 52 2 -0.35 43.355133613251496 62.27093654317131 84.99550237579975 0 0 0
157 53 1 0.7 93.54372546614321 69.39390946896462 83.4364448885603 0 0 0
158 53 2 -0.35 92.5040541047234 69.31606477648845 82.9278943364057 0 0 0
159 53 2 -0.35 94.58339682756304 69.4717541614408 83.9449954407149 0 0 0
160 54 1 0.7 80.32924203310591 30.570850411230165 93.28286154534801 0 0 0
161 54 2 -0.35 79.60903175791113 31.44031880680472 93.54917314592308 0 0 0
162 54 2 -0.35 81.0494523083007 29.70138201565561 93.01654994477295 0 0 0
163 55 1 0.7 41.053992664000944 63.45470386392191 55.20784093542389 0 0 0
164 55 2 -0.35 40.2307489024573 63.28778208343668 56.00784520308695 0 0 0
165 55 2 -0.35 41.87723642554459 63.62162564440713 54.407836667760826 0 0 0
166 56 1 0.7 50.18260166942264 37.98625798615918 83.03797337740565 0 0 0
167 56 2 -0.35 49.04354568385751 37.93137961003802 82.8255120266085 0 0 0
168 56 2 -0.35 51.32165765498777 38.04113636228034 83.2504347282028 0 0 0
169 57 1 0.7 16.21855405681699 38.23803292319087 57.619340068949086 0 0 0
170 57 2 -0.35 15.110211981832206 38.305788413716336 57.28380014834041 0 0 0
171 57 2 -0.35 17.326896131801778 38.17027743266541 57.95487998955776 0 0 0
172 58 1 0.7 89.24853882717366 51.192068307749956 75.09204835355843 0 0 0
173 58 2 -0.35 89.62158661916408 50.18341365189256 75.52684845717879 0 0 0
174 58 2 -0.35 88.87549103518325 52.200722963607355 74.65724824993806 0 0 0
175 59 1 0.7 20.056678256512004 96.59145719725241 10.62111422122508 0 0 0
176 59 2 -0.35 19.80064119929114 95.53469275713951 10.217017768082325 0 0 0
177 59 2 -0.35 20.31271531373287 97.64822163736531 11.025210674367834 0 0 0
178 60 1 0.7 12.066716129922641 53.29799560983572 27.412214508937776 0 0 0
179 60 2 -0.35 11.046908402162654 53.032727914710705 26.927214252933645 0 0 0
180 60 2 -0.35 13.086523857682629 53.56326330496074 27.897214764941907 0 0 0
181 61 1 0.7 70.08925171712845 88.05360977773256 65.01953435131327 0 0 0
182 61 2 -0.35 69.01887631082877 88.34829863882284 65.35577082277067 0 0 0
183 61 2 -0.35 71.15962712342812 87.75892091664228 64.68329787985587 0 0 0
184 62 1 0.7 21.31384252212655 39.75126938091184 47.584484985370416 0 0 0
185 62 2 -0.35 21.877895317629307 40.56238049834085 48.19238563438191 0 0 0
186 62 2 -0.35 20.749789726623792 38.940158263482836 46.976584336358925 0 0 0
187 63 1 0.7 30.439149120561382 57.779269275152714 5.178707491689692 0 0 0
188 63 2 -0.35 29.375280323296263 58.2044586853955 4.997056321522645 0 0 0
189 63 2 -0.35 31.5030179178265 57.35407986490993 5.360358661856739 0 0 0
190 64 1 0.7 17.536812828638038 18.21321091950555 1.4359241297635827 0 0 0
191 64 2 -0.35 17.5770601583101 19.120350332524048 0.7140666384242446 0 0 0
192 64 2 -0.35 17.496565498965975 17.30607150648705 2.157781621102921 0 0 0
193 65 1 0.7 76.57684893653581 27.10007635741498 70.98333907359435 0 0 0
194 65 2 -0.35 76.84685718881775 26.486270034739242 71.92987874098444 0 0 0
195 65 2 -0.35 76.30684068425387 27.71388268009072 70.03679940620427 0 0 0
196 66 1 0.7 66.97980990027068 0.6649938494269708 88.55162731909735 0 0 0
197 66 2 -0.35 66.23700249769945 0.8918214089583969 87.69000882990251 0 0 0
198 66 2 -0.35 67.72261730284191 0.43816628989554474 89.41324580829219 0 0 0
199 67 1 0.7 20.200352069083767 36.3172250908414 48.60210177144133 0 0 0
200 67 2 -0.35 19.804126567773178 35.325880250581974 48.148405000676775 0 0 0
201 67 2 -0.35 20.596577570394356 37.30856993110082 49.05579854220589 0 0 0
202 68 1 0.7 6.524472614528831 63.811232386069015 8.382712661932553 0 0 0
203 68 2 -0.35 5.869774655877015 64.47693541592052 7.694374039607996 0 0 0
204 68 2 -0.35 7.179170573180646 63.14552935621751 9.07105128425711 0 0 0
205 69 1 0.7 11.251709100441872 17.474851126538056 65.82288372508384 0 0 0
206 69 2 -0.35 10.149340331343765 17.531061277594812 66.17956778112686 0 0 0
207 69 2 -0.35 12.354077869539978 17.4186409754813 65.46619966904082 0 0 0
208 70 1 0.7 59.20676748417633 39.14110655157879 88.57781238461743 0 0 0
209 70 2 -0.35 58.09299711533121 39.21922285727849 88.26314842375375 0 0 0
210 70 2 -0.35 60.320537853021456 39.062990245879085 88.89247634548111 0 0 0
211 71 1 0.7 64.29274826510472 82.2200916149747 31.079772879872365 0 0 0
212 71 2 -0.35 65.33606943568718 81.78101562249506 31.333333933353508 0 0 0
213 71 2 -0.35 63.24942709452227 82.65916760745435 30.826211826391223 0 0 0
214 72 1 0.7 33.742792014844156 43.10539348568087 89.34831383840569 0 0 0
215 72 2 -0.35 32.58554754593643 43.123676311804275 89.42610186737811 0 0 0
216 72 2 -0.35 34.90003648375188 43.08711065955747 89.27052580943327 0 0 0
217 73 1 0.7 45.11068208427666 33.23379043779978 2.315888100916468 0 0 0
218 73 2 -0.35 45.05879494374418 34.327765210348936 2.698153612927941 0 0 0
219 73 2 -0.35 45.16256922480914 32.13981566525063 1.9336225889049947 0 0 0
220 74 1 0.7 16.13131210307186 56.96251632876811 39.011937605688324 0 0 0
221 74 2 -0.35 14.981961357876525 57.05813154183067 38.88763718111169 0 0 0
222 74 2 -0.35 17.280662848267195 56.86690111570555 39.136238030264956 0 0 0
223 75 1 0.7 95.63533880358344 78.13927182701383 51.74159662134088 0 0 0
224 75 2 -0.35 95.09804893471849 77.44694792020896 50.98159188130202 0 0 0
225 75 2 -0.35 96.17262867244838 78.8315957338187 52.50160136137974 0 0 0
226 76 1 0.7 5.014414876240499 28.27082497406324 46.75533908081955 0 0 0
227 76 2 -0.35 5.971829108166234 28.599494343656172 47.32184983446633 0 0 0
228 76 2 -0.35 4.057000644314765 27.942155604470305 46.18882832717278 0 0 0
229 77 1 0.7 53.98393133421611 71.93393417025634 5.631599498275481 0 0 0
230 77 2 -0.35 53.1644008155735 72.53944139200999 5.077225316501525 0 0 0
231 77 2 -0.35 54.80346185285872 71.32842694850268 6.185973680049437 0 0 0
232 78 1 0.7 6.292767516008005 30.54364154652862 31.983472506507987 0 0 0
233 78 2 -0.35 6.428720104554177 30.03638313099961 30.949158340723436 0 0 0
234 78 2 -0.35 6.1568149274618325 31.050899962057628 33.01778667229254 0 0 0
235 79 1 0.7 75.2224168797128 33.16049733299785 57.478675694893425 0 0 0
236 79 2 -0.35 74.30947979062461 32.53668025857775 57.127964803946014 0 0 0
237 79 2 -0.35 76.13535396880098 33.784314407417945 57.82938658584084 0 0 0
238 80 1 0.7 2.102404073859753 91.10526936087071 72.26214815409023 0 0 0
239 80 2 -0.35 3.0375134227907754 90.5121549299205 72.60767062418502 0 0 0
240 80 2 -0.35 1.1672947249287304 91.69838379182092 71.91662568399543 0 0 0
241 81 1 0.7 76.9240257944558 21.101527418522874 35.37132311396828 0 0 0
242 81 2 -0.35 76.18002206713494 21.937314738244563 35.67713025895529 0 0 0
243 81 2 -0.35 77.66802952177666 20.265740098801185 35.06551596898127 0 0 0
244 82 1 0.7 89.8275764648931 81.07764545831719 35.98721793712453 0 0 0
245 82 2 -0.35 90.10297531269485 80.03794775798127 36.42171093654532 0 0 0
246 82 2 -0.35 89.55217761709135 82.11734315865311 35.552724937703736 0 0 0
247 83 1 0.7 46.171869251957105 48.60651764301887 80.74202621809302 0 0 0
248 83 2 -0.35 45.28859159023986 48.65514156079453 79.99165545178381 0 0 0
249 83 2 -0.35 47.05514691367435 48.557893725243204 81.49239698440222 0 0 0
250 84 1 0.7 38.234647489262116 0.7203520283663423 28.95654075311336 0 0 0
251 84 2 -0.35 39.3857538994943 0.5770167483189375 28.953535787868855 0 0 0
252 84 2 -0.35 37.083541079029935 0.8636873084137471 28.959545718357862 0 0 0
253 85 1 0.7 87.58043757620288 32.41434324179512 89.8668648506826 0 0 0
254 85 2 -0.35 88.48641519112232 31.734243436559666 89.61732764667569 0 0 0
255 85 2 -0.35 86.67445996128345 33.09444304703058 90.11640205468952 0 0 0
256 86 1 0.7 48.397545422612474 33.54591784791365 1.2412698847433878 0 0 0
257 86 2 -0.35 47.76219476696112 33.86105810754399 2.1592111470927393 0 0 0
258 86 2 -0.35 49.032896078263825 33.23077758828331 0.32332862239403637 0 0 0
259 87 1 0.7 72.02295288211803 16.76908975782296 84.09155973051281 0 0 0
260 87 2 -0.35 71.70951745124488 16.26005092909488 85.08566118485261 0 0 0
261 87 2 -0.35 72.33638831299119 17.27812858655104 83.09745827617301 0 0 0
262 88 1 0.7 2.8443907289041164 87.67498069148277 37.400481750909464 0 0 0
263 88 2 -0.35 2.849041455402655 87.41612366095151 36.26974243148718 0 0 0
264 88 2 -0.35 2.839740002405578 87.93383772201403 38.531221070331746 0 0 0
265 89 1 0.7 38.89678753535114 41.30810664655087 77.34840858045425 0 0 0
266 89 2 -0.35 38.12069287524573 41.80077146667724 76.6409070231657 0 0 0
267 89 2 -0.35 39.672882195456545 40.8154418264245 78.0559101377428 0 0 0
268 90 1 0.7 25.703011694691615 53.517552681973925 54.50792593579177 0 0 0
269 90 2 -0.35 26.457149568932238 52.74179798088047 54.926352405278635 0 0 0
270 90 2 -0.35 24.94887382045099 54.29330738306738 54.0894994663049 0 0 0
271 91 1 0.7 67.71120285229348 17.186338496481227 67.79111035996634 0 0 0
272 91 2 -0.35 66.70518485867723 16.987846113681748 67.24877414460643 0 0 0
273 91 2 -0.35 68.71722084590974 17.384830879280706 68.33344657532625 0 0 0
274 92 1 0.7 73.19181995428717 59.91797170458267 13.350438920944203 0 0 0
275 92 2 -0.35 72.30584026308512 59.62547429464048 14.039703204042222 0 0 0
276 92 2 -0.35 74.07779964548922 60.210469114524855 12.661174637846184 0 0 0
277 93 1 0.7 46.82694430920619 69.45300482839951 86.65215091065137 0 0 0
278 93 2 -0.35 45.66794828664733 69.4058165125104 86.66222476474432 0 0 0
279 93 2 -0.35 47.98594033176505 69.50019314428863 86.64207705655842 0 0 0
280 94 1 0.7 72.70035531776975 16.871825755979785 28.775480752240625 0 0 0
281 94 2 -0.35 72.7898103760419 16.209528508245462 29.72361584187346 0 0 0
282 94 2 -0.35 72.6109002594976 17.534123003714107 27.82734566260779 0 0 0
283 95 1 0.7 14.505002908178142 47.58387775001297 20.233344467931122 0 0 0
284 95 2 -0.35 13.354111138361816 47.44518396518471 20.275914037098033 0 0 0
285 95 2 -0.35 15.655894677994468 47.72257153484122 20.19077489876421 0 0 0
286 96 1 0.7 95.82047251836418 21.681616146900513 82.922580956911 0 0 0
287 96 2 -0.35 95.20229173813246 22.016742065898708 83.84515514979076 0 0 0
288 96 2 -0.35 96.43865329859591 21.34649022790232 82.00000676403126 0 0 0
289 97 1 0.7 56.81814280330117 87.5260950827627 10.080055992621954 0 0 0
290 97 2 -0.35 56.810145154810655 87.98756276915508 9.015826876296773 0 0 0
291 97 2 -0.35 56.82614045179169 87.06462739637031 11.144285108947136 0 0 0
292 98 1 0.7 26.501067997189736 2.449828767892825 89.27210197470714 0 0 0
293 98 2 -0.35 26.20961758913075 1.8660718276154218 90.23120806598183 0 0 0
294 98 2 -0.35 26.79251840524872 3.033585708170228 88.31299588343245 0 0 0
295 99 1 0.7 51.21788890297426 14.058792288442511 72.1219918532865 0 0 0
296 99 2 -0.35 50.12058728539604 13.783140487730073 71.86597379762593 0 0 0
297 99 2 -0.35 52.31519052055248 14.33444408915495 72.37800990894708 0 0 0
298 100 1 0.7 97.31707818634672 29.133077929324042 84.64075814915856 0 0 0
299 100 2 -0.35 97.04948766666553 30.249951450222838 84.47769726454217 0 0 0
300 100 2 -0.35 97.58466870602791 28.016204408425246 84.80381903377494 0 0 0
301 101 1 0.7 26.22221290796167 67.73234411176868 75.50748649635702 0 0 0
302 101 2 -0.35 25.35107680486925 67.63697613892485 74.74746883890121 0 0 0
303 101 2 -0.35 27.093349011054087 67.82771208461251 76.26750415381282 0 0 0
304 102 1 0.7 72.32554427223538 53.42258346007326 42.36021345125521 0 0 0
305 102 2 -0.35 73.42086470306225 53.804432486049535 42.35218380778796 0 0 0
306 102 2 -0.35 71.2302238414085 53.04073443409699 42.368243094722466 0 0 0
307 103 1 0.7 39.107475246352834 18.336465452023067 92.97485215169138 0 0 0
308 103 2 -0.35 38.08137206698959 17.796786932129688 92.9366505749395 0 0 0
309 103 2 -0.35 40.13357842571608 18.876143971916445 93.01305372844325 0 0 0
310 104 1 0.7 12.34011347700847 94.28720808135682 91.10622336394444 0 0 0
311 104 2 -0.35 11.180518618954878 94.30904819679299 91.0847111689518 0 0 0
312 104 2 -0.35 13.499708335062063 94.26536796592066 91.12773555893708 0 0 0
313 105 1 0.7 88.29607781409103 81.17982142799526 70.2587403162656 0 0 0
314 105 2 -0.35 87.4161346146598 81.825880179498 69.86642914464105 0 0 0
315 105 2 -0.35 89.17602101352227 80.53376267649253 70.65105148789016 0 0 0
316 106 1 0.7 65.64849547606357 98.26346620044832 95.07643093498257 0 0 0
317 106 2 -0.35 64.51846640259774 98.18489238226161 94.8265100510663 0 0 0
318 106 2 -0.35 66.77852454952941 98.34204001863503 95.32635181889884 0 0 0
319 107 1 0.7 89.57472425213768 88.39050567820226 84.22893354540176 0 0 0
320 107 2 -0.35 90.2737167653148 87.47302763790236 84.35239816417898 0 0 0
321 107 2 -0.35 88.87573173896057 89.30798371850216 84.10546892662454 0 0 0
322 108 1 0.7 34.68609756728918 57.24181342927823 80.15830587929035 0 0 0
323 108 2 -0.35 35.83715037182001 57.28614001192959 80.295099867653 0 0 0
324 108 2 -0.35 33.53504476275835 57.19748684662687 80.02151189092771 0 0 0
325 109 1 0.7 28.64691323304871 31.670707849632347 65.5868287708549 0 0 0
326 109 2 -0.35 27.499005572431912 31.771905315730297 65.45391121914474 0 0 0
327 109 2 -0.35 29.79482089366551 31.569510383534396 65.71974632256504 0 0 0
328 110 1 0.7 51.831151758242 25.167600773352945 63.86619774292511 0 0 0
329 110 2 -0.35 52.60239453581466 25.932817173449386 64.27268075495077 0 0 0
330 110 2 -0.35 51.05990898066934 24.402384373256503 63.45971473089946 0 0 0
331 111 1 0.7 41.18546534245157 95.11601058352552 61.78987731355703 0 0 0
332 111 2 -0.35 40.34661357566131 95.40876864545443 62.535679184383646 0 0 0
333 111 2 -0.35 42.024317109241835 94.82325252159661 61.04407544273041 0 0 0
334 112 1 0.7 91.4680089528989 30.826471371961045 33.50434854929538 0 0 0
335 112 2 -0.35 90.59277869338202 30.111650927596713 33.76627167760744 0 0 0
336 112 2 -0.35 92.34323921241578 31.541291816325376 33.24242542098332 0 0 0
337 113 1 0.7 94.58606800743661 65.04500098714838 53.331591002797516 0 0 0
338 113 2 -0.35 93.59391683649112 65.62176290160357 53.500652376344114 0 0 0
339 113 2 -0.35 95.5782191783821 64.4682390726932 53.16252962925092 0 0 0
340 114 1 0.7 97.04998401787597 94.08138844141801 96.8955349125413 0 0 0
341 114 2 -0.35 95.96732644855545 93.81901916541787 96.57209256744076 0 0 0
342 114 2 -0.35 98.13264158719649 94.34375771741816 97.21897725764182 0 0 0
343 115 1 0.7 72.25527508149635 60.408294709123815 37.209176243845924 0 0 0
344 115 2 -0.35 73.16889996251548 60.54264115504982 36.507150169365914 0 0 0
345 115 2 -0.35 71.34165020047722 60.27394826319781 37.911202318325934 0 0 0
346 116 1 0.7 90.62513031839632 21.5652612869466 8.346449711521366 0 0 0
347 116 2 -0.35 90.85420958090478 20.49022894117808 7.9757366863387915 0 0 0
348 116 2 -0.35 90.39605105588785 22.64029363271512 8.71716273670394 0 0 0
349 117 1 0.7 94.78030153959072 62.52797590127586 22.690972743412 0 0 0
350 117 2 -0.35 94.97082550173359 62.41629373617978 21.552189307525776 0 0 0
351 117 2 -0.35 94.58977757744786 62.639658066371936 23.829756179298226 0 0 0
352 118 1 0.7 19.17889852550761 94.74751820636331 6.5384943483110955 0 0 0
353 118 2 -0.35 18.024306688606302 94.82031060562073 6.623458792469915 0 0 0
354 118 2 -0.35 20.333490362408916 94.67472580710589 6.453529904152276 0 0 0
355 119 1 0.7 2.4745120645847694 9.124269476218274 0.5970868005403722 0 0 0
356 119 2 -0.35 3.4716077883718888 9.550885773316184 1.0086674762965444 0 0 0
357 119 2 -0.35 1.47741634079765 8.697653179120364 0.18550612478419992 0 0 0
358 120 1 0.7 36.23785668203507 1.6572549634879712 34.484171342330136 0 0 0
359 120 2 -0.35 35.585803296330795 0.7728330532165107 34.85595658521017 0 0 0
360 120 2 -0.35 36.88991006773935 2.5416768737594317 34.1123860994501 0 0 0
361 121 1 0.7 29.4677505425493 66.48336862608947 71.97649868576624 0 0 0
362 121 2 -0.35 28.422411118977447 66.00258534967998 72.12385176734726 0 0 0
363 121 2 -0.35 30.513089966121154 66.96415190249897 71.82914560418523 0 0 0
364 122 1 0.7 28.013411673257785 76.40999244358856 93.74299939290759 0 0 0
365 122 2 -0.35 27.060268369230236 75.81975023258381 93.44512026585154 0 0 0
366 122 2 -0.35 28.966554977285334 77.00023465459331 94.04087851996364 0 0 0
367 123 1 0.7 52.590796598042736 21.518423304203164 13.140473742569085 0 0 0
368 123 2 -0.35 52.581804722366925 22.052804851772702 12.11093233602488 0 0 0
369 123 2 -0.35 52.59978847371855 20.984041756633626 14.17001514911329 0 0 0
370 124 1 0.7 81.94219135862878 13.410164473769331 60.63431064115572 0 0 0
371 124 2 -0.35 80.79011383065281 13.507304379647735 60.728550803606424 0 0 0
372 124 2 -0.35 83.09426888660474 13.313024567890928 60.54007047870502 0 0 0
373 125 1 0.7 73.85894590423393 85.30381245971836 82.17601048628615 0 0 0
374 125 2 -0.35 72.97997640739571 85.68350495664848 81.52114696508274 0 0 0
375 125 2 -0.35 74.73791540107216 84.92411996278824 82.83087400748956 0 0 0
376 126 1 0.7 82.20824301112827 29.940288032842936 88.4209679911942 0 0 0
377 126 2 -0.35 81.56411037418724 29.044731993919232 88.77967752155918 0 0 0
378 126 2 -0.35 82.85237564806931 30.83584407176664 88.06225846082923 0 0 0
379 127 1 0.7 2.209028001040699 2.133613491027436 21.641943698116552 0 0 0
380 127 2 -0.35 1.8585658707095547 3.083397272383674 22.20823608185167 0 0 0
381 127 2 -0.35 2.5594901313718434 1.183829709671198 21.075651314381435 0 0 0
382 128 1 0.7 10.147734244888525 74.9694538414336 38.61071297461666 0 0 0
383 128 2 -0.35 9.239295451272104 74.44543845246932 38.11498438921801 0 0 0
384 128 2 -0.35 11.056173038504946 75.49346923039789 39.10644156001531 0 0 0
385 129 1 0.7 84.25296438217767 42.572371260063896 40.843767893893535 0 0 0
386 129 2 -0.35 83.19246042222082 43.03717784323732 40.91366918969322 0 0 0
387 129 2 -0.35 85.31346834213451 42.10756467689047 40.773866598093846 0 0 0
388 130 1 0.7 94.20699266866175 29.925782198051824 42.621402656948845 0 0 0
389 130 2 -0.35 93.13715334117103 29.69958672312149 42.23426002112166 0 0 0
390 130 2 -0.35 95.27683199615248 30.151977672982156 43.00854529277603 0 0 0
391 131 1 0.7 72.91445533927272 51.25088715658099 73.66044065666405 0 0 0
392 131 2 -0.35 72.18442771405513 50.46153285744592 74.0958478877204 0 0 0
393 131 2 -0.35 73.64448296449031 52.04024145571606 73.2250334256077 0 0 0
394 132 1 0.7 16.026116552774848 70.94090248688165 46.74809702008408 0 0 0
395 132 2 -0.35 15.730611513964044 71.64254013451134 47.62330064408601 0 0 0