LAMMPS data file via write_data, version 29 Aug 2024, timestep = 4000000, units = real

1500 atoms
2 atom types
1000 bonds
1 bond types
500 angles
1 angle types

0 99 xlo xhi
0 99 ylo yhi
0 99 zlo zhi

Masses

1 12.0107
2 15.9994

PairIJ Coeffs # lj/cut/coul/long/gpu

1 1 0.053649 2.8 12
1 2 0.0917684 2.925 12
2 2 0.156973 3.05 12

Bond Coeffs # harmonic

1 0 1.16

Angle Coeffs # harmonic

1 0 180

Atoms # full

793 265 1 0.7 6.456064219001138 10.311756138824622 11.891767340391507 4 2 -1
794 265 2 -0.35 7.207330861486797 10.84853757741661 12.593952585944654 4 2 -1
795 265 2 -0.35 5.704797576515479 9.774974700232631 11.189582094838357 4 2 -1
286 96 1 0.7 8.536315795275808 0.43635915309795703 11.550458884785558 4 -1 -1
287 96 2 -0.35 9.233566073222558 98.52651295898364 11.372633259636935 4 -2 -1
288 96 2 -0.35 7.839065517329058 1.3462053472122693 11.72828450993418 4 -1 -1
1082 361 2 -0.35 30.864315045372425 5.7450031068480705 11.61204759824307 1 4 3
1081 361 1 0.7 31.6984086837173 6.406640605899018 11.151478795215521 1 4 3
1083 361 2 -0.35 32.53250232206218 7.068278104949966 10.690909992187974 1 4 3
150 50 2 -0.35 28.37529758277202 8.443867949202293 11.089871136363996 1 0 1
148 50 1 0.7 27.683785119887997 7.8118928893149375 11.773989574470448 1 0 1
149 50 2 -0.35 26.99227265700397 7.179917829427582 12.458108012576899 1 0 1
1017 339 2 -0.35 17.126402377161224 97.44350958504678 11.719723050515636 -1 0 3
401 134 2 -0.35 31.352243633924132 2.1789859228393245 3.561720027997991 -2 4 0
400 134 1 0.7 30.237292332465245 2.159581789521353 3.881262004874103 -2 4 0
402 134 2 -0.35 29.122341031006364 2.140177656203382 4.200803981750215 -2 4 0
261 87 2 -0.35 46.87899130552845 0.7610203308311174 10.557454589962715 2 0 -3
476 159 2 -0.35 63.028680043577666 1.9860187362198038 15.686850500686988 2 3 -1
475 159 1 0.7 63.610809625164755 2.969439212813678 15.487829606159188 2 3 -1
477 159 2 -0.35 64.19293920675184 3.9528596894075525 15.288808711631388 2 3 -1
805 269 1 0.7 61.358890303625664 15.447187107289583 14.870196177983967 4 0 -2
806 269 2 -0.35 61.01275036147136 14.42391621659873 15.292929929546963 4 0 -2
807 269 2 -0.35 61.705030245779966 16.470457997980436 14.447462426420973 4 0 -2
202 68 1 0.7 62.367316640516485 0.40071115490658016 12.103810298015484 0 4 6
171 57 2 -0.35 60.289522248121294 12.68319631162242 7.653079793400372 2 0 -2
169 57 1 0.7 60.46149253962507 12.28044771300062 6.578919756372946 2 0 -2
170 57 2 -0.35 60.633462831128845 11.877699114378824 5.50475971934552 2 0 -2
203 68 2 -0.35 61.81674598501481 1.407863443247773 12.27148922152114 0 4 6
932 311 2 -0.35 83.2292445271594 7.51889855201625 2.197451786695594 1 -1 -5
931 311 1 0.7 84.2562039032518 6.980341229942067 2.167278111128893 1 -1 -5
933 311 2 -0.35 85.28316327934422 6.441783907867884 2.1371044355621915 1 -1 -5
717 239 2 -0.35 8.989217518058465 23.492738863388688 6.108931867703612 -1 -5 -3
715 239 1 0.7 9.598209070253606 23.46936325988211 7.095938894282 -1 -5 -3
716 239 2 -0.35 10.207200622448747 23.445987656375532 8.082945920860388 -1 -5 -3
972 324 2 -0.35 26.26753949337498 32.99072080953035 11.741002680721197 -4 -3 3
25 9 1 0.7 37.77440159101758 21.511116832318052 11.526417783330034 -4 -5 2
27 9 2 -0.35 37.562560662667295 21.838384199296613 12.618946726464216 -4 -5 2
674 225 2 -0.35 46.54548724795305 31.66520132983203 0.5781612995375495 1 5 1
26 9 2 -0.35 37.986242519367856 21.183849465339488 10.433888840195852 -4 -5 2
675 225 2 -0.35 48.86335053677893 31.56765198794764 0.598008218742019 1 5 1
673 225 1 0.7 47.70441889236599 31.616426658889836 0.5880847591397842 1 5 1
275 92 2 -0.35 54.14580226920417 29.33484779670223 2.2775328606406395 3 -5 -1
274 92 1 0.7 53.678735717920446 28.396845302672475 1.7799384898271446 3 -5 -1
1233 411 2 -0.35 49.96238576540606 16.713829527477202 98.51286671945688 -4 -6 1
276 92 2 -0.35 53.211669166636725 27.45884280864272 1.2823441190136493 3 -5 -1
1051 351 1 0.7 78.58669537856885 31.69875158682544 12.726546430495686 6 2 -1
1052 351 2 -0.35 78.80451622236583 30.943229554440816 11.87370380809166 6 2 -1
1053 351 2 -0.35 78.36887453477186 32.45427361921006 13.57938905289971 6 2 -1
369 123 2 -0.35 87.82885501427123 19.582837129577218 2.8661824476128994 0 0 -2
368 123 2 -0.35 86.28342805133018 18.83353240052022 4.425861236730613 0 0 -2
367 123 1 0.7 87.05614153280071 19.20818476504872 3.646021842171756 0 0 -2
521 174 2 -0.35 92.85685203912071 30.919833663160503 9.266452289835687 2 -2 2
520 174 1 0.7 93.3793185074974 31.603059036030746 10.044804317705188 2 -2 2
522 174 2 -0.35 93.9017849758741 32.28628440890099 10.823156345574688 2 -2 2
754 252 1 0.7 89.09374556209379 27.36494919827463 2.4138016842408683 -4 6 3
755 252 2 -0.35 89.30319259750183 28.21253326157173 1.650039158973828 -4 6 3
756 252 2 -0.35 88.88429852668574 26.517365134977528 3.177564209507908 -4 6 3
1201 401 1 0.7 0.1315707869641218 32.94357027212593 0.6337153657942324 0 -2 -1
1202 401 2 -0.35 0.03770075215044244 33.89285366681418 1.2937528292249147 0 -2 -1
309 103 2 -0.35 13.685525796109568 41.3852067913596 9.948088151326825 8 6 2
307 103 1 0.7 12.621582698546627 41.218842592689 10.379305078810706 8 6 2
308 103 2 -0.35 11.557639600983688 41.052478394018394 10.810522006294587 8 6 2
699 233 2 -0.35 13.112471218181422 49.301146318167255 6.109501922551006 1 5 -4
1031 344 2 -0.35 4.8772117547160905 36.14639045685779 2.013879002922807 -1 -4 3
696 232 2 -0.35 8.223604349635337 42.63291189402715 14.13745305217005 -1 -4 -5
695 232 2 -0.35 9.985100112900705 44.087586950539034 14.5417464554779 -1 -4 -5
694 232 1 0.7 9.10435223126802 43.3602494222831 14.339599753823975 -1 -4 -5
1032 344 2 -0.35 6.119285333878883 34.21798589029429 2.3615987918376553 -1 -4 3
1030 344 1 0.7 5.498248544297486 35.18218817357604 2.187738897380231 -1 -4 3
411 137 2 -0.35 12.448160550156022 50.536668458511805 17.60754049234783 0 0 -3
1256 419 2 -0.35 31.0402830758816 39.98736016298299 12.04621174858479 3 -3 3
1255 419 1 0.7 30.859197167027123 40.472514899691376 13.08420634156794 3 -3 3
380 127 2 -0.35 24.594564905544473 36.64984545451778 13.160326877384996 5 -1 4
381 127 2 -0.35 26.64663976594904 37.723732745168526 13.025586926856796 5 -1 4
379 127 1 0.7 25.620602335746756 37.18678909984315 13.092956902120896 5 -1 4
222 74 2 -0.35 23.730584455930185 40.76626374178959 9.306856241444542 0 1 0
971 324 2 -0.35 25.438181932157008 34.98693761700419 10.898574943039524 -4 -3 3
517 173 1 0.7 23.8002216930619 46.678607226790774 10.151761323451579 3 0 -1
970 324 1 0.7 25.85286071276599 33.98882921326727 11.319788811880361 -4 -3 3
518 173 2 -0.35 24.47492901450764 46.12004934581772 10.912276362087223 3 0 -1
220 74 1 0.7 22.5839251879135 40.91884393021087 9.22030100375016 0 1 0
519 173 2 -0.35 23.12551437161616 47.23716510776383 9.391246284815935 3 0 -1
221 74 2 -0.35 21.437265919896817 41.07142411863215 9.13374576605578 0 1 0
1257 419 2 -0.35 30.678111258172642 40.957669636399764 14.122200934551088 3 -3 3
366 122 2 -0.35 21.54417476401582 49.00349950592748 14.307483649652504 1 -3 0
824 275 2 -0.35 60.52143029494473 41.024661622345846 17.03630927681288 2 3 3
823 275 1 0.7 60.30252572844819 39.895802256617415 17.18914030498686 2 3 3
1440 480 2 -0.35 53.671639745367266 41.28491996631088 13.004110561440587 0 4 0
134 45 2 -0.35 60.415907588443275 45.88517619277976 10.876780337234369 3 6 -5
133 45 1 0.7 60.609122063642495 45.306602137479885 9.890109049972473 3 6 -5
135 45 2 -0.35 60.802336538841715 44.72802808218002 8.903437762710578 3 6 -5
1305 435 2 -0.35 58.16675733458887 48.8362827367413 5.82039408353797 -5 1 0
1303 435 1 0.7 57.32598668491975 48.830224635304894 6.619561158724958 -5 1 0
1304 435 2 -0.35 56.48521603525063 48.82416653386849 7.418728233911945 -5 1 0
1438 480 1 0.7 53.41289150500669 41.95491969182811 12.09320457511915 0 4 0
1439 480 2 -0.35 53.15414326464612 42.624919417345346 11.182298588797714 0 4 0
165 55 2 -0.35 59.43261693630157 48.36605830429295 0.3236760638449714 -7 -2 1
921 307 2 -0.35 68.13412965253053 45.149868742696164 98.96475614900379 0 -5 -1
1090 364 1 0.7 83.00832880706496 48.76579870080149 12.655920980388098 2 1 0
1092 364 2 -0.35 82.35122694216511 48.27805066407797 13.47806390702374 2 1 0
1091 364 2 -0.35 83.6654306719648 49.253546737525 11.833778053752454 2 1 0
57 19 2 -0.35 70.64839182930714 41.097934878677435 7.064675360012464 -4 4 1
55 19 1 0.7 70.13995827727696 42.070949631995774 6.690058738657563 -4 4 1
56 19 2 -0.35 69.63152472524678 43.043964385314105 6.315442117302663 -4 4 1
776 259 2 -0.35 79.87464095017607 49.2473327377181 1.7718118204680549 -2 1 4
775 259 1 0.7 80.78878957551107 48.999882699711904 2.4416631244804052 -2 1 4
180 60 2 -0.35 92.36301257684993 37.08608282580216 9.411306804463107 -2 5 2
179 60 2 -0.35 90.47500250232925 35.76463010697134 9.143761162749097 -2 5 2
178 60 1 0.7 91.41900753958959 36.42535646638675 9.277533983606103 -2 5 2
1306 436 1 0.7 95.91214845913979 38.48467916373261 10.8854021495819 -2 3 -2
1308 436 2 -0.35 95.60045639094463 39.23868717076806 11.709974753997168 -2 3 -2
1307 436 2 -0.35 96.22384052733496 37.730671156697156 10.060829545166632 -2 3 -2
698 233 2 -0.35 13.01609075403768 51.54951621081315 6.673366828334927 1 5 -4
697 233 1 0.7 13.064280986109551 50.425331264490204 6.391434375442967 1 5 -4
599 200 2 -0.35 6.923047056748701 58.30412925003385 14.376754154229374 -1 -4 -2
205 69 1 0.7 9.913792173520505 61.89035788732926 8.75941801951392 -5 -7 -4
207 69 2 -0.35 10.4429009209166 60.99366199594852 9.270867344286339 -5 -7 -4
206 69 2 -0.35 9.384683426124413 62.787053778709996 8.247968694741498 -5 -7 -4
598 200 1 0.7 7.461570639965325 57.65994627058646 13.576366348656435 -1 -4 -2
600 200 2 -0.35 8.000094223181948 57.01576329113907 12.775978543083498 -1 -4 -2
364 122 1 0.7 20.57239100231665 49.62444634737164 14.432628927615903 1 -3 0
365 122 2 -0.35 19.60060724061748 50.2453931888158 14.557774205579301 1 -3 0
456 152 2 -0.35 29.49317570931977 55.261914843573415 1.3701016017686574 1 -3 -2
454 152 1 0.7 29.909327150421372 55.30888919040802 0.28833850903136077 1 -3 -2
234 78 2 -0.35 40.016453755743576 61.91845563989405 8.188641751796597 4 1 1
232 78 1 0.7 39.51046838824768 61.33366431121744 9.053279195921421 4 1 1
233 78 2 -0.35 39.004483020751785 60.74887298254083 9.917916640046247 4 1 1
396 132 2 -0.35 35.95165989289424 53.13170400435156 0.36839029230701503 0 -3 3
394 132 1 0.7 35.02409009015677 52.44633003604147 0.24398456650240016 0 -3 3
116 39 2 -0.35 39.15909274839118 66.58013070641972 13.35500615859751 1 -3 6
785 262 2 -0.35 54.14891867232471 62.4480046944439 6.986662003119111 2 1 -3
786 262 2 -0.35 55.03469751095355 63.65475683703474 8.759102443694859 2 1 -3
784 262 1 0.7 54.59180809163913 63.05138076573932 7.872882223406985 2 1 -3
1260 420 2 -0.35 83.66924394007518 57.5393221354567 7.126276807213383 -1 -1 6
1409 470 2 -0.35 77.19416541784729 65.26333920382936 12.534702384507861 0 4 -1
777 259 2 -0.35 81.70293820084609 48.75243266170571 3.1115144284927556 -2 1 4
1408 470 1 0.7 76.17673657274804 65.32012549689429 13.088971147907193 0 4 -1
1410 470 2 -0.35 75.15930772764878 65.37691178995922 13.643239911306523 0 4 -1
98 33 2 -0.35 73.74172174304532 52.79344395925652 15.189456514523624 2 4 2
97 33 1 0.7 74.18491170403732 51.736344285066146 15.36756585538407 2 4 2
99 33 2 -0.35 74.62810166502932 50.67924461087576 15.545675196244519 2 4 2
1259 420 2 -0.35 85.36068598401191 56.65107457066434 8.44249870174313 -1 -1 6
1258 420 1 0.7 84.51496496204354 57.095198353060525 7.7843877544782565 -1 -1 6
978 326 2 -0.35 83.96465175500333 64.28538749955831 10.588554042439176 -3 2 -2
813 271 2 -0.35 88.54973261072352 54.986732365096366 3.3908849077687053 -1 2 -2
811 271 1 0.7 87.6391105178871 55.453164884748965 3.937518339465193 -1 2 -2
812 271 2 -0.35 86.7284884250507 55.919597404401564 4.484151771161681 -1 2 -2
976 326 1 0.7 83.5201994727307 63.5797631047682 11.394876795596245 -3 2 -2
977 326 2 -0.35 83.07574719045807 62.87413870997808 12.201199548753314 -3 2 -2
1054 352 1 0.7 3.677686126736479 68.6303512683124 5.98514961512695 -1 -2 -1
1055 352 2 -0.35 4.814684064861701 68.53780479537158 6.195555981586149 -1 -2 -1
1056 352 2 -0.35 2.540688188611257 68.7228977412532 5.774743248667752 -1 -2 -1
926 309 2 -0.35 17.03665088301142 71.69256915302464 8.108045036633365 2 -3 -3
783 261 2 -0.35 2.94344801839242 79.88694256884082 98.61168083203947 0 -1 4
1230 410 2 -0.35 2.8551594442886996 72.78990165417453 15.312738056497277 3 1 -3
927 309 2 -0.35 18.30980341222513 73.62973531359152 8.202225202828739 2 -3 -3
925 309 1 0.7 17.673227147618274 72.66115223330807 8.155135119731053 2 -3 -3
1497 499 2 -0.35 16.58041466551382 81.677117911833 15.777264556895261 5 -8 -1
1496 499 2 -0.35 18.88188599162416 81.46551585058718 15.979389030323642 5 -8 -1
1495 499 1 0.7 17.73115032856899 81.57131688121008 15.878326793609451 5 -8 -1
1443 481 2 -0.35 32.25795318894077 79.9976466144425 0.7535316983320728 0 3 -2
1441 481 1 0.7 31.37265803884386 79.58831739526218 0.1255969186449258 0 3 -2
115 39 1 0.7 39.27630087969818 67.13457693473471 12.342854176994035 1 -3 6
117 39 2 -0.35 39.39350901100517 67.68902316304968 11.330702195390561 1 -3 6
348 116 2 -0.35 39.12970300786496 68.69737995249767 4.477412440412245 -1 -5 -3
346 116 1 0.7 38.46527372119241 68.54514753685413 3.5388182711150296 -1 -5 -3
347 116 2 -0.35 37.80084443451986 68.39291512121059 2.6002241018178145 -1 -5 -3
1183 395 1 0.7 45.64926162307832 82.80973001172649 4.087931732791526 0 0 -2
1184 395 2 -0.35 45.50446246478332 83.22380723573207 3.0140726841646637 0 0 -2
1185 395 2 -0.35 45.79406078137332 82.39565278772089 5.161790781418389 0 0 -2
558 186 2 -0.35 56.34633148480738 72.87585768018008 4.3070963288231505 1 8 3
556 186 1 0.7 57.04874400003984 73.10562352238668 3.412991012766902 1 8 3
557 186 2 -0.35 57.75115651527229 73.33538936459327 2.5188856967106545 1 8 3
963 321 2 -0.35 70.84597229235098 77.38055360212077 14.285095183043675 3 -2 -5
961 321 1 0.7 71.6352687944076 77.41658343588188 13.435793774284788 3 -2 -5
962 321 2 -0.35 72.4245652964642 77.45261326964298 12.586492365525901 3 -2 -5
1361 454 2 -0.35 69.1675573013281 68.99932205054724 10.630327439702302 -1 4 0
1360 454 1 0.7 69.42340924919944 68.43595815068939 9.649123639716436 -1 4 0
1362 454 2 -0.35 69.67926119707077 67.87259425083154 8.667919839730569 -1 4 0
1165 389 1 0.7 67.1457641766466 80.48516422253671 16.370672499960598 1 -2 -3
1167 389 2 -0.35 67.13563310377043 79.335081674421 16.2196509985651 1 -2 -3
1193 398 2 -0.35 96.37233890111092 83.02526998182526 4.571207538427413 1 0 -2
40 14 1 0.7 90.45999164872939 80.40758157590089 11.101167492065446 -4 3 1
42 14 2 -0.35 90.94151755894777 81.11509026370935 10.318119438326303 -4 3 1
41 14 2 -0.35 89.978465738511 79.70007288809244 11.884215545804592 -4 3 1
77 26 2 -0.35 93.69836427333696 83.13194584178987 10.998779808651534 3 -2 0
158 53 2 -0.35 1.9736459468979528 89.10555928290012 15.708946257948222 -1 2 5
157 53 1 0.7 1.8098480243742023 89.36122851842607 14.589391220184437 -1 2 5
159 53 2 -0.35 1.646050101850452 89.61689775395203 13.46983618242065 -1 2 5
1016 339 2 -0.35 19.302240784233916 96.65983248354154 11.90405271952129 -1 0 3
1015 339 1 0.7 18.21432158069757 97.05167103429416 11.811887885018463 -1 0 3
215 72 2 -0.35 30.498062432874615 95.0100944356229 16.999130298210332 -6 0 4
861 287 2 -0.35 24.557188397658418 94.88752081021183 12.007265150952975 2 -1 -1
859 287 1 0.7 25.598619242917987 95.1742436443275 12.430126606916735 2 -1 -1
860 287 2 -0.35 26.640050088177556 95.46096647844318 12.852988062880497 2 -1 -1
981 327 2 -0.35 29.77928896160542 97.67862723538684 1.2386214836993514 2 -2 2
979 327 1 0.7 29.207066778875845 98.65525302142998 0.9849211730411445 2 -2 2
747 249 2 -0.35 35.886664922119664 97.50082956579132 3.0114169712280545 -1 -1 4
745 249 1 0.7 35.15194623057072 96.63925433093428 3.2633625188525186 -1 -1 4
746 249 2 -0.35 34.41722753902178 95.77767909607724 3.515308066476979 -1 -1 4
259 87 1 0.7 46.30728514809849 98.7556379289956 10.468245309970547 2 -1 -3
260 87 2 -0.35 45.73557899066852 97.75025552716006 10.379036029978376 2 -1 -3
1342 448 1 0.7 61.45390789921856 84.1259805375664 7.697978215469947 5 1 -1
1343 448 2 -0.35 61.2918763998513 84.10512524085566 6.5495397757568705 5 1 -1
1344 448 2 -0.35 61.615939398585816 84.14683583427717 8.846416655183024 5 1 -1
204 68 2 -0.35 62.91788729601815 98.3935588665654 11.936131374509825 0 3 6
581 194 2 -0.35 61.58905090018852 96.0592389827496 6.146206350500522 2 -1 3
1488 496 2 -0.35 54.53321612700966 85.28196102129877 13.530274364298313 0 5 4
580 194 1 0.7 60.53529728278971 95.78594494196713 5.745564763681573 2 -1 3
582 194 2 -0.35 59.48154366539091 95.51265090118466 5.344923176862624 2 -1 3
1486 496 1 0.7 54.28691465937757 84.22484437817114 13.121080046320909 0 5 4
1487 496 2 -0.35 54.040613191745486 83.16772773504353 12.711885728343503 0 5 4
875 292 2 -0.35 57.7879397774078 90.26566739347975 10.146124482959756 1 -3 -1
874 292 1 0.7 56.67570486008831 90.51824982702563 9.934616556492529 1 -3 -1
876 292 2 -0.35 55.56346994276882 90.7708322605715 9.723108630025301 1 -3 -1
719 240 2 -0.35 69.81387958216122 88.8463062255081 5.660182972728004 5 2 1
718 240 1 0.7 70.50435952480609 88.07520438664979 6.183861693810035 5 2 1
720 240 2 -0.35 71.19483946745098 87.30410254779147 6.707540414892064 5 2 1
257 86 2 -0.35 73.81012612821077 84.70350909838731 4.225473610622782 0 -2 0
256 86 1 0.7 74.23519685429207 84.22505099886926 5.192940780521452 0 -2 0
258 86 2 -0.35 74.66026758037336 83.74659289935123 6.160407950420122 0 -2 0
989 330 2 -0.35 80.04243562906193 86.03949764437115 11.372303915582206 2 -2 1
988 330 1 0.7 80.1275315324013 87.16572875984927 11.10780030168401 2 -2 1
990 330 2 -0.35 80.21262743574069 88.29195987532738 10.843296687785815 2 -2 1
1192 398 1 0.7 97.31418162810473 83.20033128796567 5.225337354823525 1 0 -2
1194 398 2 -0.35 98.25602435509855 83.37539259410607 5.879467171219637 1 0 -2
672 224 2 -0.35 96.00598053649199 97.33057245103807 10.742361801663762 2 -6 2
671 224 2 -0.35 95.2803611062296 0.5274788890767255 10.570668630768756 2 -5 2
670 224 1 0.7 95.6431708213608 98.4290256700574 10.656515216216258 2 -6 2
76 26 1 0.7 92.77152232746253 83.33569019258447 11.665902171403282 3 -2 0
78 26 2 -0.35 91.84468038158809 83.53943454337906 12.33302453415503 3 -2 0
996 332 2 -0.35 2.674020694703861 0.7974787655226504 19.58939733979648 0 0 4
994 332 1 0.7 2.045265610016264 98.90431279383436 19.198857213182094 0 -1 4
1195 399 1 0.7 16.097062785777947 2.9283526393820094 20.895386031510693 0 -1 -2
1197 399 2 -0.35 16.40212198654276 2.584188410579599 19.830449475821503 0 -1 -2
1196 399 2 -0.35 15.792003585013132 3.27251686818442 21.96032258719988 0 -1 -2
71 24 2 -0.35 11.217828877243962 10.624531353601075 20.450729794199138 -1 -5 -1
70 24 1 0.7 10.589979708344202 10.40432856179333 21.400948796109795 -1 -5 -1
72 24 2 -0.35 9.962130539444445 10.184125769985577 22.35116779802045 -1 -5 -1
668 223 2 -0.35 29.06267293653152 5.938880000724223 25.28286657655569 3 5 -3
667 223 1 0.7 28.550620802771633 4.979733868373921 24.87858782481665 3 5 -3
669 223 2 -0.35 28.038568669011745 4.020587736023618 24.474309073077606 3 5 -3
733 245 1 0.7 21.798144678572335 16.24313364003294 29.4222778049649 2 1 2
734 245 2 -0.35 20.66446886785811 16.366375272334693 29.20969686445281 2 1 2
593 198 2 -0.35 42.35153768711948 1.4983489417757265 17.316614065700538 0 -1 -2
592 198 1 0.7 43.267604659158096 1.2314382125582672 17.976295780898962 0 -1 -2
594 198 2 -0.35 44.18367163119671 0.964527483340808 18.635977496097382 0 -1 -2
846 282 2 -0.35 66.05424052215226 0.31097815368183723 26.98466807683242 7 5 4
844 282 1 0.7 65.65586638957436 1.0651236152718728 27.770901294940632 7 5 4
845 282 2 -0.35 65.25749225699646 1.8192690768619082 28.557134513048847 7 5 4
62 21 2 -0.35 54.39360402629756 5.763511514234122 22.791953657985736 4 -1 -1
63 21 2 -0.35 55.2014445295215 5.931156570723995 24.960291467549176 4 -1 -1
61 21 1 0.7 54.79752427790953 5.8473340424790585 23.876122562767456 4 -1 -1
1158 386 2 -0.35 57.75019152468575 4.769240494327641 25.087316724137125 -2 3 4
1156 386 1 0.7 57.993103415044914 5.5570336001813745 25.903390149689358 -2 3 4
1104 368 2 -0.35 52.58022374305757 13.038412003566732 19.448806552579693 3 1 1
1102 368 1 0.7 51.696059395137915 12.377662045978543 19.0920672928743 3 1 1
1157 386 2 -0.35 58.23601530540408 6.344826706035108 26.71946357524159 -2 3 4
1103 368 2 -0.35 50.811895047218265 11.716912088390355 18.73532803316891 3 1 1
485 162 2 -0.35 77.79243917175893 16.129958169790722 33.77589798493195 -9 1 -2
208 70 1 0.7 81.62677231444869 11.494411996266047 19.19617478331051 0 8 0
209 70 2 -0.35 81.13682336158134 12.5133254580277 18.936626365811442 0 8 0
484 162 1 0.7 78.3917920553451 15.787228083791502 32.84374337914622 -9 1 -2
486 162 2 -0.35 78.99114493893128 15.44449799779228 31.91158877336049 -9 1 -2
1331 444 2 -0.35 97.52057502475519 6.331892593186343 16.477370015420366 -8 4 -1
210 70 2 -0.35 82.11672126731604 10.475498534504394 19.45572320080958 0 8 0
1058 353 2 -0.35 96.76487254562667 0.5407417360405394 32.400492477654915 0 1 -1
2 1 2 -0.35 95.96122605372346 12.237681041137137 17.38324734664068 -1 -1 -7
1 1 1 0.7 95.82926963984245 13.038525152958472 18.212003169184136 -1 -1 -7
3 1 2 -0.35 95.69731322596144 13.839369264779807 19.040758991727596 -1 -1 -7
321 107 2 -0.35 92.85235273590655 1.712886182391184 30.713159893861267 2 6 -3
319 107 1 0.7 93.57168089232059 1.385782973310667 29.86394231632481 2 6 -3
482 161 2 -0.35 88.12548356947084 10.90598367735331 26.272639061270837 2 5 -3
481 161 1 0.7 88.269123803049 11.621283901558678 27.17447777886199 2 5 -3
320 107 2 -0.35 94.29100904873461 1.05867976423015 29.014724738788356 2 6 -3
1371 457 2 -0.35 88.49553105584135 7.574781577404082 26.660855847661594 -2 0 -1
1369 457 1 0.7 89.12528567342497 7.685151705657676 25.692957321770532 -2 0 -1
1370 457 2 -0.35 89.75504029100858 7.79552183391127 24.72505879587947 -2 0 -1
1029 343 2 -0.35 92.98114062379369 7.436051940345343 22.551505758306572 -2 3 4
1027 343 1 0.7 92.57824754943833 6.706437919828346 23.358314627681118 -2 3 4
1028 343 2 -0.35 92.17535447508297 5.976823899311349 24.165123497055664 -2 3 4
1332 444 2 -0.35 0.1309987564465831 7.389139277348322 17.77010543043577 -7 4 -1
1330 444 1 0.7 98.32578689060088 6.860515935267332 17.123737722928066 -8 4 -1
808 270 1 0.7 88.8814752059813 15.991273286791987 25.362222494890084 -1 -5 5
809 270 2 -0.35 88.95180263665549 16.281074997145797 26.48323499311306 -1 -5 5
483 161 2 -0.35 88.41276403662715 12.336584125764047 28.076316496453146 2 5 -3
810 270 2 -0.35 88.8111477753071 15.701471576438179 24.241209996667102 -1 -5 5
929 310 2 -0.35 94.85176606670622 1.7086680517469248 25.167586892027582 2 3 -1
928 310 1 0.7 95.93509974555575 1.7136311019391457 25.58227172223358 2 3 -1
930 310 2 -0.35 97.01843342440529 1.7185941521313666 25.996956552439578 2 3 -1
200 67 2 -0.35 4.629937723237723 31.325462290582287 24.224430082380497 -4 -3 3
199 67 1 0.7 4.235700927982035 30.645103935989606 23.37161717288374 -4 -3 3
201 67 2 -0.35 3.8414641327263466 29.964745581396926 22.518804263386986 -4 -3 3
915 305 2 -0.35 11.07579741982228 32.99047414994585 22.369045095174258 0 0 -1
913 305 1 0.7 11.604280130090304 32.45444452264688 21.4864476424204 0 0 -1
735 245 2 -0.35 22.931820489286558 16.11989200773119 29.63485874547699 2 1 2
1367 456 2 -0.35 34.13789101367052 20.485256886791934 18.602760484353876 3 4 -3
1366 456 1 0.7 33.595425377516705 20.96125193616861 19.510923325788596 3 4 -3
1368 456 2 -0.35 33.05295974136289 21.437246985545283 20.419086167223316 3 4 -3
538 180 1 0.7 45.17634960919421 21.868299577522784 24.174551683974844 -4 -2 2
540 180 2 -0.35 44.06917901760557 21.631396966184735 23.922261307895297 -4 -2 2
539 180 2 -0.35 46.283520200782846 22.105202188860833 24.426842060054387 -4 -2 2
387 129 2 -0.35 62.374505443518096 25.127788661093224 21.07841128201692 -3 1 -1
385 129 1 0.7 62.02238491759336 24.05707705571315 20.804207355482966 -3 1 -1
386 129 2 -0.35 61.67026439166861 22.98636545033308 20.530003428949012 -3 1 -1
597 199 2 -0.35 54.989294867633006 30.714612613789285 25.852205683410485 3 0 1
595 199 1 0.7 54.92385270186559 30.83636923851864 24.700471058041035 3 0 1
596 199 2 -0.35 54.858410536098184 30.958125863247993 23.548736432671586 3 0 1
1310 437 2 -0.35 69.24285491681621 26.292841908748297 23.94355811475567 -5 -1 3
1309 437 1 0.7 69.55589404579368 27.23213042991056 23.339121535995577 -5 -1 3
1311 437 2 -0.35 69.86893317477113 28.171418951072823 22.734684957235483 -5 -1 3
230 77 2 -0.35 91.83644228182976 21.483780917675443 17.022660314250356 6 1 1
229 77 1 0.7 92.04768625205091 21.11519742860842 18.102068576507694 6 1 1
231 77 2 -0.35 92.25893022227206 20.746613939541394 19.181476838765033 6 1 1
409 137 1 0.7 13.530051295398103 50.119145250995984 17.63559020794066 0 0 -3
45 15 2 -0.35 7.777296192084741 46.02799535996957 27.049296279193804 0 -1 0
43 15 1 0.7 7.959736481410552 44.914664960806846 26.77946121266429 0 -1 0
44 15 2 -0.35 8.142176770736363 43.801334561644126 26.50962614613478 0 -1 0
666 222 2 -0.35 2.598078894133275 41.98675290872345 30.027306331125676 -1 -3 -1
664 222 1 0.7 3.4796329267383332 41.39731080329715 30.497434496574844 -1 -3 -1
665 222 2 -0.35 4.361186959343391 40.807868697870845 30.96756266202401 -1 -3 -1
914 305 2 -0.35 12.132762840358327 31.91841489534791 20.603850189666545 0 0 -1
1014 338 2 -0.35 0.6602926074876767 46.32452159169885 28.75026095709142 -2 -1 5
1012 338 1 0.7 1.4712509815243422 45.915963708967496 29.47208293794332 -2 -1 5
1013 338 2 -0.35 2.2822093555610077 45.50740582623614 30.193904918795216 -2 -1 5
1080 360 2 -0.35 1.0535435888000866 42.04459613516513 21.558737991727703 -4 0 -3
1078 360 1 0.7 1.422004679020054 43.144207296004794 21.585038561152395 -4 0 -3
1079 360 2 -0.35 1.7904657692400214 44.24381845684445 21.611339130577086 -4 0 -3
902 301 2 -0.35 98.82060293962715 49.54000838918066 28.326966525369215 -3 -4 1
1289 430 2 -0.35 43.84492537802918 42.87740654617516 18.941908631085546 -2 -1 5
1288 430 1 0.7 43.44284745478263 43.9222786279486 19.245513104646204 -2 -1 5
1290 430 2 -0.35 43.04076953153608 44.96715070972204 19.54911757820686 -2 -1 5
1397 466 2 -0.35 45.873175825259146 42.94084474082489 24.735429923628345 4 1 5
1396 466 1 0.7 46.25041866824859 41.84895000323193 24.840566593868818 4 1 5
1398 466 2 -0.35 46.62766151123804 40.757055265638954 24.94570326410929 4 1 5
323 108 2 -0.35 40.33766931323577 41.007765354260734 28.37722509625707 3 1 -1
322 108 1 0.7 41.25771388645864 41.42117856399556 28.950119066638795 3 1 -1
324 108 2 -0.35 42.177758459681506 41.83459177373039 29.52301303702052 3 1 -1
825 275 2 -0.35 60.08362116195165 38.766942890888984 17.341971333160846 2 3 3
587 196 2 -0.35 63.843442170736886 38.43712050625943 29.295572108616092 2 -3 -3
586 196 1 0.7 64.34146784551382 37.44801263588138 29.640877839842926 2 -3 -3
588 196 2 -0.35 64.83949352029076 36.458904765503334 29.986183571069763 2 -3 -3
660 220 2 -0.35 69.71608242512255 43.69024171063303 29.916640687127224 -1 -1 0
658 220 1 0.7 69.89604630010795 44.45087296766803 29.05952162041531 -1 -1 0
659 220 2 -0.35 70.07601017509336 45.211504224703035 28.202402553703397 -1 -1 0
1407 469 2 -0.35 90.28151915227848 48.948593911153715 22.943382654968993 -2 0 0
1405 469 1 0.7 90.3673291368096 50.07231890462503 22.668648627952383 -2 0 0
325 109 1 0.7 91.83657087642452 44.092540543216344 32.37818766331902 5 -1 -1
327 109 2 -0.35 92.72933360341352 44.695286897529535 32.80861947634231 5 -1 -1
326 109 2 -0.35 90.94380814943553 43.489794188903154 31.947755850295724 5 -1 -1
1500 500 2 -0.35 92.1621739342638 43.21285862420769 23.165374682918184 2 -1 4
1498 500 1 0.7 91.10123115412703 42.80168914530168 22.939675598090613 2 -1 4
1499 500 2 -0.35 90.04028837399028 42.390519666395676 22.713976513263045 2 -1 4
317 106 2 -0.35 90.38656279537649 41.69565322950582 29.246938633401264 -4 -7 -1
318 106 2 -0.35 88.24921100342263 41.3104527732884 28.43100485792584 -4 -7 -1
316 106 1 0.7 89.31788689939957 41.50305300139711 28.83897174566355 -4 -7 -1
434 145 2 -0.35 94.58118591069262 41.09515660850596 31.328274902984436 1 3 4
433 145 1 0.7 94.00503841385415 41.39816549278623 32.28839972712566 1 3 4
508 170 1 0.7 13.779778517050426 57.710975120604864 17.561627328143594 7 0 -4
510 170 2 -0.35 14.75152684068999 57.07751618316344 17.56754087863859 7 0 -4
410 137 2 -0.35 14.611942040640184 49.701622043480164 17.663639923533488 0 0 -3
509 170 2 -0.35 12.808030193410861 58.34443405804629 17.5557137776486 7 0 -4
901 301 1 0.7 0.8215705753409033 49.3137252169982 27.786171075832474 -2 -4 1
1391 464 2 -0.35 16.585760822039866 65.36788971095446 18.263875466894543 2 6 -1
903 301 2 -0.35 1.822538211054662 49.08744204481574 27.245375626295733 -2 -4 1
246 82 2 -0.35 5.7079870076425685 53.76499823752743 33.29271018084642 10 1 -5
1392 464 2 -0.35 17.472502543940706 64.60578183573371 20.267692001700855 2 6 -1
1390 464 1 0.7 17.029131682990286 64.98683577334408 19.2657837342977 2 6 -1
197 66 2 -0.35 25.12283600982209 65.23985108556367 25.900417014860714 -2 1 -3
198 66 2 -0.35 23.30241153700177 63.95094625003099 26.538522855382247 -2 1 -3
196 66 1 0.7 24.21262377341193 64.59539866779733 26.21946993512148 -2 1 -3
413 138 2 -0.35 37.0669676862383 58.32307550421446 19.562502942907297 0 -1 -6
412 138 1 0.7 37.17055780387007 57.187763487914765 19.77682912696731 0 -1 -6
414 138 2 -0.35 37.274147921501836 56.05245147161507 19.991155311027324 0 -1 -6
1468 490 1 0.7 64.25437897878955 51.15784031812908 32.595621490630705 -2 -6 1
1470 490 2 -0.35 63.112782820337785 51.09434489674681 32.399849831623264 -2 -6 1
1049 350 2 -0.35 66.19777094865412 54.625034224996085 20.700878275258013 1 -5 -6
1048 350 1 0.7 66.17502800937152 55.68193834815116 21.178409879626827 1 -5 -6
1469 490 2 -0.35 65.39597513724132 51.22133573951135 32.791393149638154 -2 -6 1
1050 350 2 -0.35 66.15228507008891 56.73884247130623 21.655941483995637 1 -5 -6
389 130 2 -0.35 73.67381127247148 54.970113794021934 31.85294519928253 -3 2 3