LAMMPS (29 Aug 2024 - Update 1)
  using 1 OpenMP thread(s) per MPI task
package gpu 1 gpuID 0
# GCMC for CO2 molecular fluid, rigid/small/nvt dynamics
# Rigid CO2 TraPPE model
# [Potoff and J.I. Siepmann, Vapor-liquid equilibria of
# mixtures containing alkanes, carbon dioxide and
# nitrogen AIChE J., 47,1676-1682 (2001)].

# global model settings

units           real
atom_style      full
boundary        p p p
pair_style      lj/cut/coul/long  12
pair_modify     mix arithmetic shift yes
kspace_style    pppm 1.0e-4
bond_style      harmonic
angle_style     harmonic
neigh_modify    one 4000

# box, start molecules on simple cubic lattice
region          mbox block 0 ${lbox} 0 ${lbox} 0 ${lbox} units box
region          mbox block 0 99 0 ${lbox} 0 ${lbox} units box
region          mbox block 0 99 0 99 0 ${lbox} units box
region          mbox block 0 99 0 99 0 99 units box
create_box      2 mbox                                       bond/types 1                                angle/types 1                               extra/bond/per/atom 2                       extra/angle/per/atom 1                      extra/special/per/atom 2
Created orthogonal box = (0 0 0) to (99 99 99)
  1 by 1 by 1 MPI processor grid
molecule        co2mol ../CO2.txt
Read molecule template co2mol:
# CO2 molecule file. TraPPE model.
  1 molecules
  0 fragments
  3 atoms with max type 2
  2 bonds with max type 1
  1 angles with max type 1
  0 dihedrals with max type 0
  0 impropers with max type 0
create_atoms   	0 random ${nmols} 34578 mbox mol co2mol 464563 overlap 1.2
create_atoms   	0 random 500 34578 mbox mol co2mol 464563 overlap 1.2
Created 1500 atoms
  using lattice units in orthogonal box = (0 0 0) to (99 99 99)
  create_atoms CPU = 0.013 seconds

# rigid CO2 TraPPE model

pair_coeff      1   1  0.053649   2.800
pair_coeff      2   2  0.156973   3.050
bond_coeff      1       0       1.16
angle_coeff     1       0       180

# masses

mass 1 12.0107
mass 2 15.9994

write_data init_conf.data  pair ij
System init for write_data ...
PPPM initialization ...
  using 12-bit tables for long-range coulomb (src/kspace.cpp:342)
  G vector (1/distance) = 0.17633375
  grid = 24 24 24
  stencil order = 5
  estimated absolute RMS force accuracy = 0.029674313
  estimated relative force accuracy = 8.9363312e-05
  using double precision FFTW3
  3d grid and FFT values/proc = 24389 13824
Generated 1 of 1 mixed pair_coeff terms from arithmetic mixing rule

# MD settings

group           co2 type 1 2
1500 atoms in group co2
velocity       	all create 300 54654
timestep        0.25

# rigid constraints with thermostat
fix             myrigidnvt co2 rigid/nvt molecule temp 300 300 $(100*dt)
fix             myrigidnvt co2 rigid/nvt molecule temp 300 300 25
  500 rigid bodies with 1500 atoms

thermo 1000
thermo_style custom step temp density press ke pe etotal


variable    mvol equal vol
variable    mden equal density
variable	mtmp equal temp
variable    mpre equal press

fix mydat all ave/time 1 4000 4000 v_mtmp v_mden v_mpre file statistics.dat ## every 1ps

run 4000000 ## 1ns

CITE-CITE-CITE-CITE-CITE-CITE-CITE-CITE-CITE-CITE-CITE-CITE-CITE

Your simulation uses code contributions which should be cited:

- GPU package (short-range, long-range and three-body potentials): doi:10.1016/j.cpc.2010.12.021, doi:10.1016/j.cpc.2011.10.012, doi:10.1016/j.cpc.2013.08.002, doi:10.1016/j.commatsci.2014.10.068, doi:10.1016/j.cpc.2016.10.020, doi:10.3233/APC200086

@Article{Brown11,
 author = {W. M. Brown and P. Wang and S. J. Plimpton and A. N. Tharrington},
 title = {Implementing Molecular Dynamics on Hybrid High Performance Computers---Short Range Forces},
 journal = {Comput.\ Phys.\ Commun.},
 year =    2011,
 volume =  182,
 pages =   {898--911},
 doi =     {10.1016/j.cpc.2010.12.021}
}

@Article{Brown12,
 author = {W. M. Brown and A. Kohlmeyer and S. J. Plimpton and A. N. Tharrington},
 title = {Implementing Molecular Dynamics on Hybrid High Performance Computers - Particle-Particle Particle-Mesh},
 journal = {Comput.\ Phys.\ Commun.},
 year =    2012,
 volume =  183,
 doi =     {10.1016/j.cpc.2011.10.012},
 pages =   {449--459}
}

@Article{Brown13,
 author = {W. M. Brown and Y. Masako},
 title = {Implementing Molecular Dynamics on Hybrid High Performance Computers---Three-Body Potentials},
 journal = {Comput.\ Phys.\ Commun.},
 year =    2013,
 volume =  184,
 pages =   {2785--2793},
 doi =     {10.1016/j.cpc.2013.08.002},
}

@Article{Trung15,
 author = {T. D. Nguyen and S. J. Plimpton},
 title = {Accelerating Dissipative Particle Dynamics Simulations for Soft Matter Systems},
 journal = {Comput.\ Mater.\ Sci.},
 year =    2015,
 doi =     {10.1016/j.commatsci.2014.10.068},
 volume =  100,
 pages =   {173--180}
}

@Article{Trung17,
 author = {T. D. Nguyen},
 title = {{GPU}-Accelerated {T}ersoff Potentials for Massively Parallel
    Molecular Dynamics Simulations},
 journal = {Comput.\ Phys.\ Commun.},
 year =    2017,
 doi =     {10.1016/j.cpc.2016.10.020},
 volume =  212,
 pages =   {113--122}
}

@inproceedings{Nikolskiy19,
 author = {V. Nikolskiy and V. Stegailov},
 title = {{GPU} Acceleration of Four-Site Water Models in {LAMMPS}},
 booktitle = {Proceedings of the International Conference on Parallel
    Computing (ParCo 2019), Prague, Czech Republic},
 doi =     {10.3233/APC200086},
 year =    2019
}

CITE-CITE-CITE-CITE-CITE-CITE-CITE-CITE-CITE-CITE-CITE-CITE-CITE

PPPM initialization ...
  using 12-bit tables for long-range coulomb (src/kspace.cpp:342)
  G vector (1/distance) = 0.17633375
  grid = 24 24 24
  stencil order = 5
  estimated absolute RMS force accuracy = 0.029674313
  estimated relative force accuracy = 8.9363312e-05
  using double precision FFTW3
  3d grid and FFT values/proc = 24389 13824
Generated 1 of 1 mixed pair_coeff terms from arithmetic mixing rule
Per MPI rank memory allocation (min/avg/max) = 9.616 | 9.616 | 9.616 Mbytes
   Step          Temp         Density         Press          KinEng         PotEng         TotEng    
         0   305.66621      0.037658231   -1301.9125      758.3663       17872.98       18631.347    
      1000   314.54056      0.037658231    12.854569      780.3838      -47.761463      732.62234    
      2000   303.43849      0.037658231    24.833746      752.83925     -61.761039      691.07822    
      3000   292.70853      0.037658231    19.006778      726.21794     -78.990078      647.22786    
      4000   315.86706      0.037658231    14.704055      783.67488     -87.455939      696.21894    
      5000   307.82093      0.037658231    19.656199      763.71222     -93.303619      670.4086     
      6000   297.97212      0.037658231    17.786327      739.27704     -107.53182      631.74522    
      7000   294.1744       0.037658231    18.950987      729.8548      -102.48489      627.36992    
      8000   299.42125      0.037658231    16.845184      742.87238     -105.08028      637.7921     
      9000   298.67211      0.037658231    23.58094       741.01375     -118.87401      622.13974    
     10000   286.24859      0.037658231    19.911297      710.19064     -121.39993      588.7907     
     11000   303.2469       0.037658231    21.344268      752.36392     -132.3109       620.05302    
     12000   315.51957      0.037658231    21.135135      782.81274     -131.84689      650.96585    
     13000   298.16863      0.037658231    9.1238803      739.76459     -129.34876      610.41583    
     14000   295.06216      0.037658231    24.349854      732.05736     -127.25331      604.80406    
     15000   297.86739      0.037658231    18.811274      739.01722     -130.91806      608.09916    
     16000   300.77376      0.037658231    20.484781      746.22799     -140.02969      606.1983     
     17000   279.68597      0.037658231    20.291258      693.90859     -140.59092      553.31768    
     18000   296.37682      0.037658231    17.486336      735.31906     -135.34594      599.97312    
     19000   307.43539      0.037658231    18.598567      762.75567     -135.92738      626.82829    
     20000   302.02181      0.037658231    20.864123      749.32443     -130.57407      618.75036    
     21000   295.5639       0.037658231    11.848958      733.30219     -141.74694      591.55526    
     22000   299.34619      0.037658231    18.576643      742.68615     -139.91105      602.7751     
     23000   313.72497      0.037658231    17.603735      778.36029     -141.25544      637.10485    
     24000   286.05039      0.037658231    15.684724      709.6989      -147.58059      562.1183     
     25000   300.64686      0.037658231    26.62282       745.91315     -151.70322      594.20993    
     26000   319.60714      0.037658231   -0.95468224     792.95413     -158.39184      634.56229    
     27000   295.83596      0.037658231   -10.946322      733.97716     -146.98276      586.9944     
     28000   285.52898      0.037658231    14.971291      708.40528     -147.14774      561.25754    
     29000   319.10561      0.037658231    29.031273      791.70982     -144.01091      647.69891    
     30000   303.28982      0.037658231    1.0197805      752.47041     -138.87087      613.59954    
     31000   288.27149      0.037658231    52.952586      715.20952     -139.52332      575.6862     
     32000   306.78664      0.037658231    23.070428      761.14611     -143.80109      617.34503    
     33000   306.18588      0.037658231    8.8807418      759.65562     -152.15268      607.50294    
     34000   302.00484      0.037658231    11.549906      749.28234     -148.98051      600.30183    
     35000   298.19229      0.037658231    16.690503      739.82328     -148.23794      591.58534    
     36000   280.51652      0.037658231    10.581702      695.96922     -146.02446      549.94476    
     37000   299.96834      0.037658231    20.83157       744.22971     -141.47626      602.75345    
     38000   303.15427      0.037658231    21.442403      752.13411     -147.9087       604.22542    
     39000   300.83944      0.037658231    16.299178      746.39094     -148.98843      597.40251    
     40000   308.91908      0.037658231    24.86132       766.43676     -144.57835      621.8584     
     41000   289.48567      0.037658231    31.18864       718.22192     -146.89573      571.32619    
     42000   300.80258      0.037658231    12.171948      746.29948     -153.96808      592.3314     
     43000   304.04815      0.037658231    1.4372278      754.35184     -150.46021      603.89163    
     44000   301.6331       0.037658231    12.183859      748.36002     -146.77126      601.58877    
     45000   316.17462      0.037658231    28.389888      784.43795     -151.95083      632.48712    
     46000   300.85934      0.037658231    21.005767      746.44032     -145.89735      600.54296    
     47000   295.40946      0.037658231    17.176328      732.91902     -145.66811      587.25091    
     48000   297.93694      0.037658231    11.06745       739.18976     -148.75975      590.43001    
     49000   312.19874      0.037658231    5.1200956      774.57369     -147.31048      627.26321    
     50000   302.76137      0.037658231    39.791089      751.15931     -144.31735      606.84196    
     51000   297.46076      0.037658231    22.219404      738.00834     -143.66139      594.34694    
     52000   287.54285      0.037658231    6.0290499      713.40174     -144.51132      568.89042    
     53000   304.40505      0.037658231   -15.41788       755.23732     -152.81783      602.41949    
     54000   308.59794      0.037658231    22.651025      765.63999     -147.86739      617.77259    
     55000   299.80343      0.037658231    44.967633      743.82058     -146.47959      597.34099    
     56000   296.3348       0.037658231    5.5298726      735.2148      -149.65409      585.5607     
     57000   308.67321      0.037658231    26.369662      765.82673     -156.02326      609.80347    
     58000   303.74558      0.037658231    26.849575      753.60116     -157.96836      595.6328     
     59000   288.48324      0.037658231   -0.74934128     715.73488     -157.45132      558.28356    
     60000   295.03171      0.037658231   -4.8772276      731.98181     -157.84554      574.13626    
     61000   305.61056      0.037658231    24.539186      758.22823     -156.75688      601.47135    
     62000   298.46656      0.037658231    37.757508      740.50376     -151.12694      589.37682    
     63000   298.57277      0.037658231    11.775889      740.76728     -153.76482      587.00247    
     64000   301.94959      0.037658231    29.615727      749.14525     -160.15025      588.995      
     65000   298.00962      0.037658231    22.160326      739.37009     -157.94241      581.42768    
     66000   299.7213       0.037658231    3.4962513      743.6168      -156.48945      587.12736    
     67000   310.72199      0.037658231    13.864799      770.90981     -151.81184      619.09797    
     68000   305.58042      0.037658231    21.712095      758.15345     -156.20936      601.94409    
     69000   302.20563      0.037658231    22.874424      749.7805      -157.06568      592.71483    
     70000   297.26083      0.037658231    18.723385      737.51232     -151.54188      585.97044    
     71000   294.33545      0.037658231    15.653988      730.25437     -154.36796      575.88641    
     72000   303.72898      0.037658231    20.076125      753.55996     -158.89656      594.6634     
     73000   301.89157      0.037658231    18.30068       749.00132     -147.75984      601.24148    
     74000   301.25084      0.037658231    18.549965      747.41164     -146.41981      600.99183    
     75000   305.41274      0.037658231    16.723966      757.73744     -147.63         610.10743    
     76000   301.0319       0.037658231    19.885335      746.86845     -139.54436      607.32409    
     77000   308.07452      0.037658231    20.632974      764.34138     -144.48072      619.86066    
     78000   295.75313      0.037658231    16.708388      733.77167     -141.07636      592.69531    
     79000   292.23922      0.037658231    6.4044369      725.05356     -130.8457       594.20786    
     80000   306.48432      0.037658231    19.951963      760.39605     -136.93516      623.46089    
     81000   299.3336       0.037658231    21.501597      742.6549      -134.37718      608.27772    
     82000   290.55403      0.037658231    29.357145      720.87256     -135.61395      585.25861    
     83000   300.80453      0.037658231    10.972655      746.30433     -146.97406      599.33027    
     84000   320.08135      0.037658231    16.446842      794.13064     -139.58614      654.5445     
     85000   296.76286      0.037658231    21.768373      736.27683     -140.94418      595.33265    
     86000   298.08832      0.037658231    27.463792      739.56535     -127.23404      612.33131    
     87000   296.92208      0.037658231    19.06454       736.67185     -133.70379      602.96806    
     88000   290.46068      0.037658231   -5.3949432      720.64095     -136.03943      584.60152    
     89000   309.79858      0.037658231    4.4288417      768.61882     -128.05321      640.5656     
     90000   309.90739      0.037658231    21.713544      768.88878     -124.86066      644.02813    
     91000   279.10683      0.037658231    28.849912      692.47173     -124.14066      568.33107    
     92000   295.28675      0.037658231    8.3729079      732.61456     -127.36328      605.25128    
     93000   308.86289      0.037658231    18.808036      766.29735     -128.13317      638.16417    
     94000   300.25504      0.037658231    36.626746      744.94104     -124.42729      620.51375    
     95000   283.70585      0.037658231    36.276013      703.88203     -121.39759      582.48444    
     96000   302.06913      0.037658231    13.498808      749.44184     -126.01102      623.43082    
     97000   308.51634      0.037658231    56.267965      765.43755     -130.14309      635.29446    
     98000   283.47977      0.037658231    21.1151        703.32113     -120.38985      582.93128    
     99000   290.22506      0.037658231   -15.749886      720.05638     -113.38634      606.67004    
    100000   302.50955      0.037658231    10.55288       750.53453     -115.10752      635.427      
    101000   306.19333      0.037658231    33.461756      759.67408     -118.52108      641.153      
    102000   302.9953       0.037658231    24.580776      751.7397      -117.60838      634.13132    
    103000   300.28747      0.037658231    38.840994      745.0215      -122.39868      622.62282    
    104000   290.30386      0.037658231    22.073335      720.25189     -122.41783      597.83406    
    105000   295.08686      0.037658231    8.3086166      732.11865     -121.59123      610.52741    
    106000   311.33036      0.037658231    26.090776      772.4192      -123.82816      648.59103    
    107000   293.59817      0.037658231    10.216769      728.42516     -119.74169      608.68347    
    108000   308.08307      0.037658231    2.4672701      764.36259     -116.84012      647.52247    
    109000   308.62295      0.037658231    32.591277      765.70205     -126.01377      639.68827    
    110000   313.20962      0.037658231    35.641338      777.0817      -117.20506      659.87665    
    111000   301.41232      0.037658231    10.553661      747.81228     -117.62983      630.18245    
    112000   293.96328      0.037658231    15.347821      729.331       -115.69799      613.63301    
    113000   300.73606      0.037658231    22.723004      746.13445     -118.63456      627.49989    
    114000   290.23942      0.037658231    20.016839      720.09201     -124.46897      595.62305    
    115000   307.43962      0.037658231    22.064459      762.76618     -128.55817      634.20802    
    116000   306.63593      0.037658231    19.506278      760.7722      -128.20996      632.56224    
    117000   293.24735      0.037658231    21.404739      727.55476     -107.31925      620.2355     
    118000   287.84043      0.037658231    13.034084      714.14004     -107.86759      606.27245    
    119000   307.74138      0.037658231    17.829402      763.51484     -112.69168      650.82316    
    120000   308.71147      0.037658231    28.832638      765.92167     -111.14631      654.77536    
    121000   295.11624      0.037658231    17.992514      732.19154     -109.18055      623.01098    
    122000   298.25619      0.037658231    10.865091      739.98182     -113.50489      626.47693    
    123000   304.42134      0.037658231    18.659157      755.27774     -114.16168      641.11606    
    124000   298.94785      0.037658231    17.447792      741.69786     -108.07207      633.6258     
    125000   286.83678      0.037658231    22.231831      711.64995     -109.29251      602.35744    
    126000   300.78723      0.037658231    18.490909      746.26141     -113.83673      632.42468    
    127000   301.81048      0.037658231    15.381611      748.80013     -109.94022      638.85991    
    128000   307.75924      0.037658231    28.548802      763.55915     -104.55105      659.0081     
    129000   309.07786      0.037658231    17.056853      766.8307      -105.20523      661.62548    
    130000   306.82687      0.037658231    16.645412      761.24593     -105.39522      655.85071    
    131000   293.12123      0.037658231    28.808465      727.24185     -101.54469      625.69716    
    132000   304.95903      0.037658231    16.036384      756.61176     -101.53475      655.07701    
    133000   305.92403      0.037658231    12.354846      759.00595     -104.35103      654.65492    
    134000   292.38301      0.037658231    19.659227      725.41032     -98.858241      626.55208    
    135000   309.21541      0.037658231    17.845963      767.17195     -103.08251      664.08944    
    136000   307.02642      0.037658231    14.497352      761.74101     -112.82114      648.91986    
    137000   289.2909       0.037658231    1.082441       717.73869     -104.75708      612.98161    
    138000   292.9003       0.037658231    25.788094      726.69372     -98.685729      628.00799    
    139000   296.72494      0.037658231    27.777081      736.18275     -94.258383      641.92436    
    140000   315.65652      0.037658231    16.069431      783.15252     -97.640409      685.51211    
    141000   295.42612      0.037658231    20.670515      732.96034     -94.861156      638.09918    
    142000   307.05635      0.037658231    23.87929       761.81526     -92.249758      669.5655     
    143000   307.06423      0.037658231    7.3485829      761.83482     -90.600268      671.23455    
    144000   298.09565      0.037658231    22.582137      739.58352     -85.851104      653.73241    
    145000   295.57894      0.037658231    38.147008      733.3395      -91.031233      642.30827    
    146000   291.54918      0.037658231    49.359123      723.34154     -90.882627      632.45891    
    147000   298.69874      0.037658231    23.854054      741.0798      -90.517354      650.56245    
    148000   306.04267      0.037658231   -11.91004       759.3003      -93.186657      666.11365    
    149000   297.02431      0.037658231    28.539177      736.9255      -81.979186      654.94631    
    150000   307.22989      0.037658231    21.429574      762.24582     -79.935335      682.31048    
    151000   306.80843      0.037658231    10.612242      761.20017     -80.081709      681.11846    
    152000   295.6828       0.037658231    42.275928      733.59718     -75.75743       657.83975    
    153000   306.37135      0.037658231    14.78454       760.11576     -72.288365      687.82739    
    154000   290.6547       0.037658231    5.068824       721.12233     -75.51205       645.61028    
    155000   296.45468      0.037658231    17.188159      735.51224     -71.581922      663.93032    
    156000   293.14545      0.037658231    30.796421      727.30195     -71.738917      655.56303    
    157000   301.11199      0.037658231    27.086919      747.06715     -72.109043      674.9581     
    158000   304.37805      0.037658231    22.382777      755.17032     -69.473971      685.69635    
    159000   304.36818      0.037658231    20.933693      755.14584     -68.331104      686.81473    
    160000   306.65546      0.037658231    17.391238      760.82066     -72.121345      688.69931    
    161000   291.73377      0.037658231    17.834263      723.79952     -75.363464      648.43605    
    162000   286.3257       0.037658231    15.962596      710.38195     -70.041645      640.3403     
    163000   292.27244      0.037658231    17.851878      725.13597     -71.297515      653.83846    
    164000   306.89275      0.037658231    19.34579       761.40937     -84.405184      677.00419    
    165000   290.2153       0.037658231    27.845846      720.03216     -84.330595      635.70156    
    166000   302.59164      0.037658231    19.0623        750.73821     -83.647443      667.09077    
    167000   313.36743      0.037658231    22.339979      777.47323     -83.42466       694.04857    
    168000   298.18057      0.037658231    16.494353      739.7942      -91.711563      648.08264    
    169000   300.45803      0.037658231    14.217711      745.44466     -82.064439      663.38022    
    170000   313.90123      0.037658231    20.969631      778.79759     -75.216636      703.58096    
    171000   304.62016      0.037658231    20.296126      755.77102     -78.946119      676.8249     
    172000   296.77418      0.037658231    17.463656      736.30493     -78.024305      658.28062    
    173000   303.83172      0.037658231    19.66327       753.81488     -81.204634      672.61025    
    174000   311.10538      0.037658231    21.346173      771.86103     -83.933302      687.92772    
    175000   297.55297      0.037658231    17.45801       738.23713     -77.980656      660.25647    
    176000   299.61378      0.037658231    19.884912      743.35006     -75.868857      667.4812     
    177000   300.25623      0.037658231    20.288028      744.94399     -69.269881      675.67411    
    178000   297.08402      0.037658231    19.065346      737.07365     -73.97255       663.1011     
    179000   298.75486      0.037658231    17.999279      741.21904     -70.245592      670.97345    
    180000   303.1108       0.037658231    18.385135      752.02625     -72.691901      679.33435    
    181000   310.02556      0.037658231    30.566309      769.18197     -74.323512      694.85845    
    182000   294.52205      0.037658231    25.148299      730.71732     -79.669478      651.04784    
    183000   297.64074      0.037658231    17.443996      738.45488     -76.150576      662.3043     
    184000   293.89343      0.037658231    17.926654      729.15769     -76.168478      652.98921    
    185000   311.72773      0.037658231    20.373439      773.4051      -72.939651      700.46544    
    186000   313.1543       0.037658231    20.352107      776.94445     -74.96374       701.98071    
    187000   283.8185       0.037658231    11.573238      704.16152     -80.126741      624.03478    
    188000   299.18179      0.037658231    16.852746      742.27827     -78.882336      663.39593    
    189000   304.70656      0.037658231    30.313711      755.98537     -77.008805      678.97656    
    190000   298.32442      0.037658231    19.359778      740.15111     -77.399644      662.75146    
    191000   301.24711      0.037658231    15.025179      747.40238     -79.906168      667.49621    
    192000   302.25308      0.037658231    16.921254      749.89823     -81.141666      668.75656    
    193000   306.72172      0.037658231    21.869574      760.98505     -90.00403       670.98102    
    194000   297.9807       0.037658231    16.592567      739.29833     -92.375328      646.923      
    195000   307.524        0.037658231    23.090397      762.97553     -77.924596      685.05094    
    196000   300.80148      0.037658231    20.625646      746.29677     -79.919757      666.37701    
    197000   298.74395      0.037658231    18.795255      741.19198     -80.12793       661.06405    
    198000   296.38312      0.037658231    23.096347      735.33469     -71.560253      663.77444    
    199000   297.7252       0.037658231    20.07503       738.66442     -75.144624      663.51979    
    200000   292.82978      0.037658231    17.863096      726.51875     -67.776337      658.74241    
    201000   302.63321      0.037658231    20.813922      750.84133     -80.908741      669.93259    
    202000   296.03201      0.037658231    18.387254      734.46359     -80.242039      654.22155    
    203000   311.14662      0.037658231    14.327237      771.96335     -78.45578       693.50757    
    204000   303.67211      0.037658231    11.733172      753.41887     -76.553961      676.86491    
    205000   289.60559      0.037658231    17.217057      718.51946     -71.444819      647.07464    
    206000   297.56862      0.037658231    21.770963      738.27594     -66.723735      671.55221    
    207000   316.6125       0.037658231    21.223328      785.52435     -68.663538      716.86081    
    208000   297.86741      0.037658231    16.009551      739.01726     -64.022089      674.99517    
    209000   294.40991      0.037658231    19.329601      730.43911     -65.107849      665.33126    
    210000   306.12226      0.037658231    24.115196      759.49776     -66.739672      692.75809    
    211000   319.09601      0.037658231    18.581525      791.686       -62.367569      729.31843    
    212000   289.2722       0.037658231    15.115275      717.69231     -62.669936      655.02237    
    213000   288.48947      0.037658231    17.698341      715.75033     -65.34955       650.40078    
    214000   294.90285      0.037658231    24.250184      731.66209     -62.93242       668.72967    
    215000   321.34524      0.037658231    18.024375      797.26641     -60.616927      736.64948    
    216000   291.90576      0.037658231    17.544139      724.22624     -63.301538      660.9247     
    217000   288.89884      0.037658231    18.027144      716.76599     -64.830235      651.93576    
    218000   299.7734       0.037658231    24.380475      743.74606     -59.065191      684.68087    
    219000   302.87705      0.037658231    23.158439      751.44632     -58.513153      692.93316    
    220000   298.78172      0.037658231    25.622692      741.28569     -55.648921      685.63676    
    221000   297.92758      0.037658231    16.379794      739.16654     -61.905635      677.2609     
    222000   295.69802      0.037658231    21.056522      733.63495     -60.709416      672.92553    
    223000   305.28043      0.037658231    20.976869      757.40916     -61.461101      695.94806    
    224000   286.43667      0.037658231    19.875229      710.65729     -66.777772      643.87951    
    225000   296.70902      0.037658231    18.768236      736.14325     -67.532767      668.61048    
    226000   313.079        0.037658231    20.546093      776.75762     -65.353237      711.40438    
    227000   307.08836      0.037658231    12.02949       761.89469     -62.701521      699.19317    
    228000   286.37582      0.037658231    11.682499      710.50629     -68.122955      642.38334    
    229000   288.9283       0.037658231    22.808665      716.83907     -62.457038      654.38203    
    230000   304.83408      0.037658231    20.586917      756.30176     -65.834611      690.46715    
    231000   314.10131      0.037658231    19.010764      779.294       -60.287312      719.00669    
    232000   291.05082      0.037658231    17.54812       722.10511     -62.611003      659.4941     
    233000   287.52631      0.037658231    21.937413      713.36069     -55.298816      658.06188    
    234000   314.98008      0.037658231    19.912778      781.47425     -60.906254      720.568      
    235000   299.80223      0.037658231    16.829914      743.81759     -64.591923      679.22567    
    236000   286.137        0.037658231    25.550886      709.91379     -70.243361      639.67043    
    237000   313.42216      0.037658231    21.220382      777.60902     -64.48593       713.12309    
    238000   303.46935      0.037658231    18.336105      752.91581     -69.611538      683.30427    
    239000   300.62768      0.037658231    18.516414      745.86556     -69.717526      676.14803    
    240000   295.11169      0.037658231    21.042389      732.18023     -67.151224      665.02901    
    241000   293.58885      0.037658231    18.873989      728.40202     -67.295864      661.10616    
    242000   295.09266      0.037658231    20.75979       732.13302     -59.475805      672.65721    
    243000   306.50562      0.037658231    15.62591       760.4489      -62.801052      697.64785    
    244000   298.67878      0.037658231    20.425039      741.0303      -61.812283      679.21801    
    245000   289.83233      0.037658231    18.46281       719.08201     -67.157854      651.92416    
    246000   305.17631      0.037658231    22.085552      757.15085     -70.249368      686.90148    
    247000   305.75478      0.037658231    13.573974      758.58604     -73.119476      685.46657    
    248000   297.6165       0.037658231    21.471648      738.39474     -68.485603      669.90914    
    249000   306.55407      0.037658231    19.037992      760.56911     -62.86953       697.69958    
    250000   306.60858      0.037658231    19.880493      760.70435     -60.555296      700.14905    
    251000   299.82018      0.037658231    19.869868      743.86214     -65.265258      678.59688    
    252000   306.06584      0.037658231    23.599707      759.35779     -60.29135       699.06644    
    253000   297.79534      0.037658231    19.148919      738.83845     -62.053204      676.78525    
    254000   301.27251      0.037658231    18.610613      747.46539     -62.047839      685.41755    
    255000   304.36576      0.037658231    20.384753      755.13985     -58.803899      696.33595    
    256000   295.01436      0.037658231    23.190164      731.93876     -60.252202      671.68656    
    257000   291.49003      0.037658231    15.142103      723.1948      -61.142442      662.05236    
    258000   315.36477      0.037658231    16.306797      782.42868     -65.734381      716.6943     
    259000   303.80404      0.037658231    30.821258      753.7462      -61.924087      691.82211    
    260000   292.8134       0.037658231    17.177854      726.47813     -69.922721      656.55541    
    261000   294.89765      0.037658231    17.532821      731.6492      -71.814487      659.83471    
    262000   305.60634      0.037658231    23.27128       758.21776     -69.549037      688.66873    
    263000   293.74624      0.037658231    23.092574      728.79252     -66.648611      662.14391    
    264000   297.21563      0.037658231    18.32461       737.40018     -61.405808      675.99437    
    265000   299.26542      0.037658231    17.175178      742.48576     -68.023828      674.46193    
    266000   295.83681      0.037658231    22.478788      733.97929     -58.747483      675.2318     
    267000   290.56745      0.037658231    20.785988      720.90586     -59.884579      661.02128    
    268000   294.79156      0.037658231    25.588199      731.38599     -57.648618      673.73737    
    269000   302.99018      0.037658231    19.863666      751.72698     -62.149662      689.57732    
    270000   309.63426      0.037658231    18.241142      768.21114     -54.446199      713.76494    
    271000   288.36247      0.037658231    22.223278      715.43523     -58.293059      657.14217    
    272000   299.23355      0.037658231    31.281152      742.40668     -59.831357      682.57532    
    273000   299.84739      0.037658231    15.648434      743.92964     -56.434226      687.49542    
    274000   308.98491      0.037658231    8.1672817      766.60008     -61.658389      704.94169    
    275000   296.62023      0.037658231    16.897487      735.92297     -66.022699      669.90028    
    276000   293.08836      0.037658231    23.299277      727.16031     -61.082859      666.07745    
    277000   297.23497      0.037658231    27.282826      737.44816     -57.848434      679.59972    
    278000   324.2628       0.037658231    24.404604      804.50495     -57.061256      747.44369    
    279000   289.03346      0.037658231    2.5368998      717.09998     -60.62841       656.47157    
    280000   298.27632      0.037658231    22.858999      740.03176     -64.223822      675.80794    
    281000   302.20809      0.037658231    27.235519      749.78661     -67.605105      682.18151    
    282000   308.14616      0.037658231    21.958727      764.51912     -68.652719      695.8664     
    283000   307.5917       0.037658231    14.621523      763.1435      -64.756446      698.38705    
    284000   300.56213      0.037658231    24.670252      745.70292     -62.909012      682.79391    
    285000   296.10359      0.037658231    35.80319       734.64117     -66.865606      667.77556    
    286000   296.87479      0.037658231    20.410323      736.55454     -63.127846      673.4267     
    287000   308.13329      0.037658231    20.396517      764.4872      -67.516165      696.97103    
    288000   305.22696      0.037658231    20.241044      757.2765      -64.176932      693.09957    
    289000   285.45206      0.037658231    17.562898      708.21443     -65.362486      642.85194    
    290000   280.92664      0.037658231    15.374718      696.98675     -65.214161      631.77258    
    291000   286.82973      0.037658231    18.936175      711.63247     -64.336677      647.29579    
    292000   301.19894      0.037658231    18.881791      747.28288     -62.058262      685.22462    
    293000   301.9049       0.037658231    23.678365      749.03437     -59.302515      689.73186    
    294000   289.44018      0.037658231    20.577842      718.10907     -63.106723      655.00234    
    295000   300.33981      0.037658231    12.796878      745.15136     -55.917609      689.23375    
    296000   299.43548      0.037658231    27.286682      742.90768     -51.97568       690.932      
    297000   296.38011      0.037658231    21.565828      735.32722     -57.162078      678.16514    
    298000   302.37583      0.037658231    9.2249214      750.20278     -56.588395      693.61438    
    299000   303.78377      0.037658231    23.180495      753.6959      -61.992655      691.70324    
    300000   287.37871      0.037658231    27.339609      712.9945      -59.687595      653.30691    
    301000   300.87979      0.037658231    22.426051      746.49106     -65.835162      680.6559     
    302000   295.78622      0.037658231    7.4280661      733.85377     -65.530709      668.32306    
    303000   308.37917      0.037658231    8.8122591      765.09723     -59.808083      705.28915    
    304000   306.78788      0.037658231    22.404477      761.14919     -62.067516      699.08168    
    305000   297.32788      0.037658231    13.316811      737.67867     -66.837331      670.84134    
    306000   296.12287      0.037658231    18.613336      734.68899     -65.72351       668.96548    
    307000   296.98319      0.037658231    16.889243      736.82347     -63.230726      673.59275    
    308000   313.87577      0.037658231    21.215895      778.73444     -59.048835      719.68561    
    309000   293.59786      0.037658231    18.532616      728.42438     -58.75372       669.67066    
    310000   299.29907      0.037658231    20.184261      742.56923     -56.464055      686.10518    
    311000   304.55487      0.037658231    19.798996      755.60902     -63.295689      692.31333    
    312000   299.51748      0.037658231    11.24222       743.11113     -69.694596      673.41654    
    313000   285.66724      0.037658231    23.038635      708.7483      -64.485965      644.26233    
    314000   304.33874      0.037658231    24.497185      755.07281     -63.442848      691.62996    
    315000   315.79333      0.037658231    8.1410769      783.49195     -67.675689      715.81627    
    316000   293.73325      0.037658231   -20.338858      728.76029     -69.73303       659.02726    
    317000   296.68813      0.037658231    20.30894       736.09143     -71.535741      664.55569    
    318000   296.10878      0.037658231    17.451954      734.65405     -61.842063      672.81199    
    319000   310.31061      0.037658231    3.5640609      769.88918     -70.45936       699.42982    
    320000   301.15085      0.037658231    20.736328      747.16356     -65.845482      681.31808    
    321000   315.00519      0.037658231    27.23918       781.53656     -64.020419      717.51614    
    322000   306.52537      0.037658231    16.937201      760.4979      -60.757563      699.74034    
    323000   315.18507      0.037658231    14.547241      781.98285     -67.17975       714.8031     
    324000   287.33917      0.037658231    21.584602      712.8964      -59.40102       653.49538    
    325000   308.72876      0.037658231    20.553216      765.96457     -63.261148      702.70342    
    326000   310.96899      0.037658231    22.025273      771.52265     -59.481009      712.04164    
    327000   286.69635      0.037658231    20.835683      711.30154     -66.853302      644.44824    
    328000   291.70494      0.037658231    20.318545      723.72801     -72.510346      651.21766    
    329000   309.57242      0.037658231    17.374391      768.05771     -69.350578      698.70713    
    330000   306.50053      0.037658231    19.715364      760.43626     -67.469179      692.96708    
    331000   299.42934      0.037658231    21.53517       742.89245     -62.762011      680.13044    
    332000   282.87726      0.037658231    1.2032483      701.82629     -64.092126      637.73416    
    333000   316.53339      0.037658231   -0.68478592     785.32807     -57.080464      728.2476     
    334000   311.60362      0.037658231    22.337937      773.09718     -58.561923      714.53525    
    335000   310.45816      0.037658231    28.539609      770.25526     -57.097748      713.15751    
    336000   288.67959      0.037658231    29.552816      716.22201     -54.950052      661.27196    
    337000   289.30998      0.037658231    19.3436        717.78604     -57.676683      660.10936    
    338000   296.35008      0.037658231    11.590987      735.25272     -64.164764      671.08796    
    339000   308.76963      0.037658231    19.633784      766.06597     -57.501309      708.56466    
    340000   302.5408       0.037658231    22.791716      750.61206     -57.991106      692.62095    
    341000   288.29402      0.037658231    18.489112      715.26541     -49.757639      665.50777    
    342000   302.32422      0.037658231    18.19262       750.07472     -54.298834      695.77589    
    343000   307.92752      0.037658231    24.201851      763.97666     -52.864628      711.11203    
    344000   303.22391      0.037658231    15.629441      752.30687     -60.696812      691.61006    
    345000   296.24438      0.037658231    20.474169      734.99048     -56.346439      678.64404    
    346000   293.05817      0.037658231    27.58564       727.08539     -52.08524       675.00015    
    347000   305.97939      0.037658231    22.422748      759.1433      -58.027508      701.11579    
    348000   301.88516      0.037658231    9.3587571      748.9854      -59.903419      689.08198    
    349000   284.85621      0.037658231    4.3604824      706.7361      -62.243683      644.49242    
    350000   293.85982      0.037658231    22.739447      729.07432     -68.655994      660.41833    
    351000   315.18745      0.037658231    17.894171      781.98874     -66.93954       715.0492     
    352000   290.53464      0.037658231    12.493973      720.82444     -65.751103      655.07334    
    353000   293.10404      0.037658231    44.507985      727.19921     -64.815677      662.38354    
    354000   309.81984      0.037658231    23.289037      768.67157     -64.031305      704.64026    
    355000   309.84813      0.037658231   -17.912492      768.74176     -61.975151      706.7666     
    356000   294.21103      0.037658231    7.2130786      729.94567     -61.61975       668.32592    
    357000   287.28625      0.037658231    31.435121      712.76512     -64.817679      647.94744    
    358000   304.41535      0.037658231    27.333564      755.26288     -65.913353      689.34953    
    359000   305.32121      0.037658231    14.797193      757.51033     -60.62594       696.88439    
    360000   302.38397      0.037658231    31.995484      750.22296     -62.799462      687.4235     
    361000   310.20771      0.037658231    41.131289      769.63387     -65.352678      704.2812     
    362000   299.55567      0.037658231    14.510251      743.20589     -61.189198      682.01669    
    363000   299.01033      0.037658231    19.608646      741.85287     -64.845032      677.00784    
    364000   283.8561       0.037658231    63.09553       704.25482     -57.281433      646.97338    
    365000   304.63094      0.037658231    15.819523      755.79776     -63.446541      692.35122    
    366000   310.19057      0.037658231   -11.320425      769.59135     -57.542061      712.04929    
    367000   299.21283      0.037658231    15.156046      742.35528     -51.629601      690.72568    
    368000   296.03899      0.037658231    29.506583      734.4809      -61.298036      673.18287    
    369000   294.53624      0.037658231    21.351562      730.75254     -59.713216      671.03932    
    370000   292.49421      0.037658231    16.215517      725.68621     -55.173699      670.51251    
    371000   295.54035      0.037658231    23.254801      733.24375     -64.577043      668.6667     
    372000   311.8653       0.037658231    21.981873      773.74641     -61.362913      712.38349    
    373000   308.47165      0.037658231    18.528749      765.32667     -65.991154      699.33552    
    374000   294.66875      0.037658231    18.305125      731.0813      -62.516364      668.56494    
    375000   294.37335      0.037658231    21.022966      730.34838     -61.754251      668.59413    
    376000   307.33965      0.037658231    18.607249      762.51813     -62.889627      699.6285     
    377000   299.16604      0.037658231    18.63632       742.2392      -56.96758       685.27162    
    378000   297.23902      0.037658231    21.021725      737.45819     -51.882245      685.57595    
    379000   297.75597      0.037658231    27.667259      738.74077     -52.283975      686.4568     
    380000   301.70621      0.037658231    9.7902217      748.54142     -50.495127      698.04629    
    381000   308.9885       0.037658231    18.49513       766.60898     -57.696559      708.91243    
    382000   305.23638      0.037658231    22.386038      757.29986     -54.075141      703.22472    
    383000   294.10409      0.037658231    15.851519      729.68035     -59.154883      670.52547    
    384000   291.78367      0.037658231    18.296276      723.92332     -57.872089      666.05123    
    385000   297.77196      0.037658231    17.417951      738.78044     -56.790164      681.99028    
    386000   307.2          0.037658231    17.33536       762.17166     -65.547071      696.62459    
    387000   296.52321      0.037658231    27.571132      735.68226     -57.874286      677.80797    
    388000   302.40342      0.037658231    17.75006       750.27122     -66.680041      683.59118    
    389000   314.32463      0.037658231    23.661575      779.84808     -57.336291      722.51178    
    390000   282.87758      0.037658231    24.917421      701.82707     -67.097629      634.72944    
    391000   289.56081      0.037658231    17.121061      718.40836     -68.162416      650.24594    
    392000   304.48669      0.037658231    13.732687      755.43986     -68.628434      686.81143    
    393000   301.10887      0.037658231    18.936936      747.05942     -69.505395      677.55402    
    394000   297.2839       0.037658231    20.514444      737.56956     -63.241678      674.32788    
    395000   303.22101      0.037658231    25.46778       752.29969     -65.095922      687.20376    
    396000   291.71754      0.037658231    24.624543      723.75925     -57.064754      666.69449    
    397000   296.33262      0.037658231    10.355968      735.2094      -59.967809      675.24159    
    398000   309.57727      0.037658231    41.026347      768.06973     -61.423138      706.64659    
    399000   298.13772      0.037658231    38.474991      739.68789     -63.693576      675.99432    
    400000   305.55562      0.037658231    27.145574      758.09192     -62.629133      695.46279    
    401000   299.92089      0.037658231   -0.75556933     744.11201     -60.926667      683.18534    
    402000   298.32359      0.037658231    6.2874145      740.14905     -62.056845      678.09221    
    403000   306.38003      0.037658231   -0.17830785     760.13731     -56.580914      703.5564     
    404000   300.81125      0.037658231    43.496477      746.321       -63.31498       683.00602    
    405000   291.60141      0.037658231    0.51838877     723.47114     -62.449387      661.02175    
    406000   305.41875      0.037658231    15.893415      757.75233     -57.1649        700.58743    
    407000   301.81331      0.037658231    29.023462      748.80714     -64.806903      684.00024    
    408000   290.23081      0.037658231    27.285719      720.07063     -61.292657      658.77797    
    409000   297.54157      0.037658231   -6.7890716      738.20883     -55.251999      682.95683    
    410000   316.87235      0.037658231    5.9410598      786.16903     -66.573902      719.59513    
    411000   297.0173       0.037658231    32.578529      736.90811     -62.251651      674.65646    
    412000   291.75761      0.037658231    17.494815      723.85868     -60.640849      663.21783    
    413000   301.67094      0.037658231    3.1607054      748.45393     -66.593478      681.86045    
    414000   309.53429      0.037658231    21.337273      767.96311     -72.122457      695.84065    
    415000   290.80691      0.037658231    20.0908        721.49997     -66.738641      654.76133    
    416000   300.962        0.037658231    9.8571697      746.69501     -63.510207      683.1848     
    417000   320.29559      0.037658231    23.568014      794.66219     -58.8481        735.81409    
    418000   285.51312      0.037658231    21.574154      708.36592     -67.811453      640.55447    
    419000   291.22657      0.037658231    14.912985      722.54114     -54.160939      668.3802     
    420000   315.23154      0.037658231    29.018652      782.09813     -57.946583      724.15154    
    421000   305.55761      0.037658231    35.495503      758.09687     -62.731378      695.36549    
    422000   295.67588      0.037658231    11.798721      733.58        -67.003358      666.57664    
    423000   303.60925      0.037658231    23.702463      753.26292     -63.947377      689.31554    
    424000   307.53783      0.037658231    31.076429      763.00984     -68.388404      694.62144    
    425000   285.96631      0.037658231    17.777228      709.49031     -65.280223      644.21009    
    426000   306.70677      0.037658231    13.251445      760.94796     -63.936411      697.01155    
    427000   322.02167      0.037658231    32.412749      798.94463     -65.016632      733.928      
    428000   286.83461      0.037658231    25.234781      711.64458     -66.883637      644.76095    
    429000   288.02914      0.037658231    19.466293      714.60823     -61.323412      653.28482    
    430000   317.79998      0.037658231    20.297822      788.47052     -63.95267       724.51785    
    431000   299.53654      0.037658231    19.036119      743.15841     -64.306159      678.85225    
    432000   291.4122       0.037658231    18.702254      723.00171     -65.198911      657.8028     
    433000   318.61999      0.037658231    17.801211      790.50498     -64.785553      725.71943    
    434000   300.36517      0.037658231    20.291489      745.21426     -67.424723      677.78954    
    435000   283.6412       0.037658231    17.033594      703.72163     -57.854453      645.86717    
    436000   294.68102      0.037658231    8.4812332      731.11173     -59.471787      671.63994    
    437000   310.81585      0.037658231    22.388882      771.14269     -57.957767      713.18492    
    438000   305.93923      0.037658231    18.432306      759.04366     -57.103902      701.93976    
    439000   299.25459      0.037658231    21.034405      742.45888     -57.549343      684.90954    
    440000   297.36756      0.037658231    26.065101      737.77712     -57.270577      680.50654    
    441000   300.19281      0.037658231    19.15868       744.78664     -60.478662      684.30797    
    442000   307.31475      0.037658231    17.697658      762.45636     -60.077845      702.37851    
    443000   299.0223       0.037658231    27.240885      741.88256     -61.032853      680.84971    
    444000   296.10816      0.037658231    19.663566      734.6525      -55.991711      678.66078    
    445000   301.9125       0.037658231    19.285455      749.05324     -58.752147      690.30109    
    446000   299.17023      0.037658231    19.247036      742.2496      -55.811849      686.43775    
    447000   300.88378      0.037658231    19.814948      746.50096     -54.028201      692.47276    
    448000   294.6614       0.037658231    19.77869       731.06305     -58.312397      672.75065    
    449000   290.963        0.037658231    19.04174       721.88723     -54.427751      667.45947    
    450000   291.98264      0.037658231    19.879633      724.41697     -58.430835      665.98613    
    451000   296.88306      0.037658231    25.219267      736.57505     -59.453258      677.12179    
    452000   308.07339      0.037658231    14.90275       764.33857     -61.051534      703.28704    
    453000   290.7641       0.037658231    12.738306      721.39374     -65.682278      655.71146    
    454000   297.139        0.037658231    35.663204      737.21004     -64.561759      672.64828    
    455000   313.54702      0.037658231    20.551668      777.9188      -69.95874       707.96006    
    456000   298.40103      0.037658231    12.734795      740.34118     -62.066335      678.27485    
    457000   275.1074       0.037658231    11.645495      682.54905     -62.760605      619.78844    
    458000   298.27041      0.037658231    23.183503      740.01711     -62.865296      677.15181    
    459000   312.91329      0.037658231    27.340545      776.34649     -56.611959      719.73453    
    460000   306.20605      0.037658231    20.894988      759.70566     -64.466786      695.23887    
    461000   303.4373       0.037658231    12.593684      752.8363      -68.568156      684.26814    
    462000   302.32771      0.037658231    21.710172      750.08339     -62.694956      687.38844    
    463000   285.15485      0.037658231    23.708139      707.47704     -60.585997      646.89104    
    464000   309.32404      0.037658231    33.512409      767.44146     -55.066731      712.37473    
    465000   294.43882      0.037658231    8.3647521      730.51083     -61.745594      668.76524    
    466000   300.4915       0.037658231    12.387262      745.52771     -64.657563      680.87014    
    467000   311.43352      0.037658231    30.261813      772.67515     -61.651807      711.02334    
    468000   290.30773      0.037658231   -8.9543834      720.26147     -64.938625      655.32285    
    469000   297.06426      0.037658231    9.1672126      737.02463     -61.112476      675.91215    
    470000   289.09181      0.037658231    7.5895285      717.24474     -55.62609       661.61865    
    471000   287.35675      0.037658231    7.9991553      712.94003     -57.488719      655.45131    
    472000   301.44901      0.037658231    35.918885      747.90331     -51.034931      696.86838    
    473000   308.81453      0.037658231    3.261847       766.17735     -50.296973      715.88038    
    474000   299.35383      0.037658231    5.3418426      742.7051      -52.623707      690.08139    
    475000   292.26324      0.037658231    15.638511      725.11316     -56.17207       668.94109    
    476000   302.45764      0.037658231    28.161882      750.40575     -59.777313      690.62844    
    477000   309.87968      0.037658231    18.219034      768.82003     -60.775401      708.04463    
    478000   291.46666      0.037658231    17.016694      723.13681     -56.373374      666.76343    
    479000   294.87671      0.037658231    25.089743      731.59725     -58.237472      673.35977    
    480000   296.54156      0.037658231    12.372403      735.72779     -52.693967      683.03383    
    481000   304.97667      0.037658231    13.840797      756.65551     -57.362176      699.29334    
    482000   298.55596      0.037658231    18.072618      740.72558     -53.874593      686.85098    
    483000   301.12931      0.037658231    23.662325      747.11012     -61.447101      685.66302    
    484000   303.61979      0.037658231    22.322539      753.28907     -74.999085      678.28999    
    485000   307.42032      0.037658231    6.6013106      762.7183      -75.885089      686.83321    
    486000   282.86956      0.037658231    12.744976      701.80718     -64.843589      636.96359    
    487000   295.82055      0.037658231    22.183907      733.93894     -68.590695      665.34825    
    488000   309.69582      0.037658231    18.391922      768.36386     -67.302455      701.06141    
    489000   301.84513      0.037658231    18.246925      748.88608     -60.523487      688.36259    
    490000   300.74462      0.037658231    21.320512      746.1557      -55.332801      690.8229     
    491000   305.77435      0.037658231    12.684745      758.63458     -55.595031      703.03955    
    492000   296.43879      0.037658231    20.40204       735.47282     -59.624331      675.84849    
    493000   300.58269      0.037658231    18.745667      745.75395     -65.351735      680.40222    
    494000   303.69526      0.037658231    21.452996      753.47631     -59.988049      693.48826    
    495000   310.4151       0.037658231    24.047134      770.14842     -60.962716      709.1857     
    496000   290.53593      0.037658231    19.89877       720.82766     -58.144305      662.68336    
    497000   300.4226       0.037658231    17.531889      745.35675     -55.273715      690.08303    
    498000   297.19224      0.037658231    22.538589      737.34215     -57.56592       679.77623    
    499000   308.38469      0.037658231    18.318423      765.11091     -56.659743      708.45117    
    500000   291.83545      0.037658231    16.828035      724.0518      -55.722515      668.32928    
    501000   295.41555      0.037658231    16.333378      732.93412     -56.184799      676.74932    
    502000   302.66669      0.037658231    21.254939      750.9244      -67.002175      683.92222    
    503000   309.89417      0.037658231    19.81943       768.85597     -65.910332      702.94563    
    504000   301.11992      0.037658231    16.924714      747.08682     -69.776587      677.31023    
    505000   295.02237      0.037658231    20.160927      731.95863     -65.695967      666.26267    
    506000   303.76477      0.037658231    15.235812      753.64877     -70.646413      683.00236    
    507000   297.34177      0.037658231    14.502145      737.71312     -67.57341       670.13971    
    508000   292.86495      0.037658231    19.561133      726.60602     -65.917275      660.68874    
    509000   306.06481      0.037658231    19.414169      759.35524     -65.459879      693.89536    
    510000   298.29136      0.037658231    17.288334      740.06908     -64.443904      675.62518    
    511000   291.52618      0.037658231    16.609841      723.28449     -63.612012      659.67248    
    512000   303.14867      0.037658231    18.208978      752.1202      -76.915361      675.20484    
    513000   306.78586      0.037658231    18.709495      761.14418     -74.550879      686.5933     
    514000   297.05997      0.037658231    17.435302      737.01397     -74.170304      662.84366    
    515000   299.66905      0.037658231    18.940976      743.48717     -66.027271      677.4599     
    516000   301.87887      0.037658231    21.008624      748.9698      -71.008709      677.96109    
    517000   298.08493      0.037658231    19.204213      739.55692     -68.215834      671.34109    
    518000   298.76516      0.037658231    15.998367      741.24459     -73.4062        667.83839    
    519000   301.06387      0.037658231    17.510182      746.94776     -63.376672      683.57109    
    520000   300.89788      0.037658231    27.501176      746.53595     -59.957843      686.5781     
    521000   301.59585      0.037658231    18.06789       748.26761     -68.409352      679.85826    
    522000   292.45662      0.037658231    14.690725      725.59293     -63.449717      662.14321    
    523000   298.95111      0.037658231    17.542726      741.70594     -60.793699      680.91224    
    524000   299.00221      0.037658231    18.796205      741.83273     -69.125889      672.70684    
    525000   304.40292      0.037658231    25.574551      755.23202     -68.095224      687.1368     
    526000   303.46533      0.037658231    21.719917      752.90585     -70.244397      682.66145    
    527000   295.8139       0.037658231    16.397838      733.92245     -72.324991      661.59745    
    528000   293.89658      0.037658231    14.962523      729.16552     -67.472891      661.69262    
    529000   308.10686      0.037658231    32.376561      764.4216      -63.328261      701.09334    
    530000   296.99407      0.037658231    16.961585      736.85048     -68.288911      668.56157    
    531000   293.51804      0.037658231    6.6518371      728.22634     -68.346424      659.87992    
    532000   303.23668      0.037658231    15.460453      752.33857     -69.347716      682.99085    
    533000   313.50612      0.037658231    18.30167       777.81733     -71.540847      706.27648    
    534000   296.59131      0.037658231    26.108123      735.85121     -69.760235      666.09097    
    535000   295.64732      0.037658231    35.240011      733.50915     -71.475877      662.03327    
    536000   278.73927      0.037658231   -2.1759144      691.5598      -70.968978      620.59082    
    537000   309.50134      0.037658231    22.470636      767.88135     -62.899372      704.98198    
    538000   308.17997      0.037658231    35.942124      764.60301     -58.696697      705.90631    
    539000   292.59781      0.037658231    28.884685      725.94322     -64.225408      661.71782    
    540000   291.20258      0.037658231    7.9056039      722.48162     -66.95161       655.53001    
    541000   317.38519      0.037658231    26.491586      787.4414      -66.092346      721.34905    
    542000   301.54475      0.037658231    23.108969      748.14083     -64.734974      683.40585    
    543000   296.63592      0.037658231    5.4687449      735.96189     -64.742307      671.21959    
    544000   304.21255      0.037658231    24.708447      754.75972     -63.131845      691.62787    
    545000   293.77266      0.037658231    26.901385      728.85807     -58.157698      670.70038    
    546000   305.89254      0.037658231    7.7479333      758.92782     -60.388138      698.53969    
    547000   311.44462      0.037658231    21.411605      772.70269     -53.83224       718.87045    
    548000   285.08068      0.037658231    32.548951      707.29303     -59.791273      647.50176    
    549000   286.92794      0.037658231    15.768406      711.87614     -60.938645      650.93749    
    550000   307.6894       0.037658231    22.561493      763.38589     -65.590005      697.79589    
    551000   306.74136      0.037658231    26.900755      761.03377     -67.635487      693.39829    
    552000   288.94697      0.037658231    17.122879      716.88539     -70.321193      646.5642     
    553000   305.17261      0.037658231    11.040898      757.14166     -65.443463      691.6982     
    554000   311.37511      0.037658231    23.409266      772.53023     -66.370636      706.15959    
    555000   295.55759      0.037658231    20.932463      733.28654     -61.759458      671.52708    
    556000   289.10579      0.037658231    18.230935      717.27942     -64.273584      653.00584    
    557000   320.11275      0.037658231    24.011461      794.20857     -61.084945      733.12362    
    558000   294.73438      0.037658231    18.317539      731.24413     -64.195772      667.04836    
    559000   289.9748       0.037658231    17.573356      719.43547     -65.419767      654.0157     
    560000   309.02637      0.037658231    28.4503        766.70295     -62.350536      704.35241    
    561000   300.54516      0.037658231    16.49923       745.66083     -61.549868      684.11096    
    562000   302.03227      0.037658231    12.847443      749.35039     -60.787445      688.56295    
    563000   298.97473      0.037658231    21.196164      741.76454     -60.844641      680.9199     
    564000   294.8158       0.037658231    16.400607      731.44612     -51.773224      679.6729     
    565000   311.12302      0.037658231    17.490124      771.9048      -56.598673      715.30612    
    566000   295.4798       0.037658231    22.198737      733.09353     -57.72982       675.36371    
    567000   287.08773      0.037658231    20.103149      712.27256     -58.193336      654.07923    
    568000   311.76699      0.037658231    16.082096      773.5025      -53.970556      719.53194    
    569000   315.37304      0.037658231    11.361718      782.44922     -63.587395      718.86182    
    570000   302.09185      0.037658231    28.252599      749.4982      -58.519994      690.97821    
    571000   289.74882      0.037658231    3.0898385      718.87481     -63.212617      655.66219    
    572000   306.17897      0.037658231    22.789967      759.63847     -62.542118      697.09636    
    573000   311.92131      0.037658231    21.478575      773.88538     -62.626644      711.25873    
    574000   299.74654      0.037658231    17.522949      743.67943     -62.041588      681.63784    
    575000   289.11757      0.037658231    20.183007      717.30867     -57.858672      659.45       
    576000   303.91123      0.037658231    22.925805      754.01213     -55.160214      698.85191    
    577000   315.93482      0.037658231    18.401591      783.843       -51.05839       732.78461    
    578000   289.13622      0.037658231    19.312559      717.35494     -54.116279      663.23866    
    579000   290.38911      0.037658231    20.963776      720.46339     -57.449402      663.01399    
    580000   304.36431      0.037658231    19.323387      755.13625     -50.626352      704.5099     
    581000   307.76909      0.037658231    18.216664      763.58358     -51.296615      712.28697    
    582000   304.437        0.037658231    18.383217      755.3166      -55.171234      700.14536    
    583000   295.91496      0.037658231    17.366922      734.17318     -54.945463      679.22771    
    584000   301.11273      0.037658231    24.450133      747.06898     -60.911754      686.15723    
    585000   300.18524      0.037658231    19.044098      744.76786     -63.263567      681.50429    
    586000   289.59575      0.037658231    17.694946      718.49503     -58.861308      659.63372    
    587000   297.90132      0.037658231    21.756759      739.10138     -60.259399      678.84198    
    588000   294.18157      0.037658231    14.564915      729.87257     -55.569518      674.30305    
    589000   295.08139      0.037658231    15.943945      732.10506     -63.585479      668.51958    
    590000   282.11107      0.037658231    17.461207      699.92533     -63.021083      636.90425    
    591000   302.87376      0.037658231    21.635365      751.43815     -62.050452      689.3877     
    592000   306.48709      0.037658231    17.887174      760.40293     -58.628557      701.77437    
    593000   297.51412      0.037658231    19.440582      738.14073     -56.266157      681.87457    
    594000   311.00822      0.037658231    21.818094      771.61997     -56.959522      714.66045    
    595000   295.87665      0.037658231    17.51914       734.07813     -53.870355      680.20777    
    596000   284.95796      0.037658231    18.865816      706.98855     -55.785167      651.20338    
    597000   308.80731      0.037658231    16.35005       766.15944     -57.978984      708.18046    
    598000   304.0233       0.037658231    20.913804      754.29018     -63.669232      690.62095    
    599000   286.07853      0.037658231    23.950024      709.76871     -57.897288      651.87142    
    600000   293.5044       0.037658231    13.459254      728.19251     -63.783458      664.40906    
    601000   306.7315       0.037658231    18.889391      761.00931     -62.090913      698.9184     
    602000   294.12869      0.037658231    28.493106      729.74138     -62.37172       667.36966    
    603000   277.89581      0.037658231    21.62697       689.46716     -60.224065      629.2431     
    604000   289.35024      0.037658231    18.469347      717.88593     -53.573089      664.31284    
    605000   319.61392      0.037658231    17.548089      792.97095     -59.625609      733.34535    
    606000   303.70143      0.037658231    17.548755      753.49162     -59.723365      693.76826    
    607000   286.91483      0.037658231    26.539986      711.8436      -57.39156       654.45204    
    608000   308.34611      0.037658231    24.854497      765.0152      -57.85607       707.15913    
    609000   321.04381      0.037658231    29.765141      796.51853     -50.914235      745.6043     
    610000   299.31918      0.037658231    10.355379      742.61913     -54.883736      687.73539    
    611000   296.31574      0.037658231    24.487445      735.16752     -59.573147      675.59437    
    612000   302.54375      0.037658231    25.461358      750.61938     -56.277169      694.34221    
    613000   300.39117      0.037658231    16.506492      745.27877     -55.938875      689.3399     
    614000   287.70102      0.037658231    4.6244105      713.79417     -53.912011      659.88216    
    615000   304.57401      0.037658231    36.704407      755.6565      -58.215765      697.44074    
    616000   305.92394      0.037658231    10.201668      759.00573     -65.372585      693.63315    
    617000   299.01206      0.037658231    13.193966      741.85715     -64.814029      677.04312    
    618000   298.54034      0.037658231    16.842929      740.68681     -55.980397      684.70641    
    619000   299.38586      0.037658231    31.516596      742.78456     -54.161485      688.62308    
    620000   300.41263      0.037658231    20.044786      745.33202     -59.249315      686.08271    
    621000   297.32995      0.037658231   -2.3521789      737.68381     -61.049842      676.63397    
    622000   298.88743      0.037658231    29.939624      741.54795     -59.152539      682.39541    
    623000   309.2305       0.037658231    41.772268      767.20939     -70.709154      696.50024    
    624000   305.33571      0.037658231    1.5572691      757.54631     -66.723585      690.82272    
    625000   297.86224      0.037658231    16.259901      739.00444     -71.116811      667.88763    
    626000   304.98362      0.037658231    34.334161      756.67277     -69.630285      687.04248    
    627000   305.14125      0.037658231    19.987356      757.06386     -68.400744      688.66312    
    628000   295.43225      0.037658231    2.2208455      732.97556     -70.004515      662.97105    
    629000   295.01544      0.037658231    24.458386      731.94144     -72.206682      659.73475    
    630000   319.52052      0.037658231    30.148799      792.73923     -70.872903      721.86632    
    631000   301.9111       0.037658231    8.4662792      749.04975     -71.603892      677.44586    
    632000   289.93028      0.037658231    31.523197      719.32503     -60.4121        658.91293    
    633000   301.16706      0.037658231    40.194998      747.20378     -61.862025      685.34176    
    634000   308.12725      0.037658231    6.0525747      764.47221     -66.483276      697.98893    
    635000   291.49196      0.037658231    17.204234      723.19959     -62.858764      660.34083    
    636000   296.59327      0.037658231    38.906792      735.85607     -66.185766      669.6703     
    637000   322.55149      0.037658231   -7.3169899      800.25913     -63.520768      736.73836    
    638000   298.79477      0.037658231   -13.087125      741.31805     -61.725329      679.59272    
    639000   293.95467      0.037658231    19.803167      729.30964     -66.539841      662.7698     
    640000   297.9239       0.037658231    22.975184      739.1574      -62.321303      676.8361     
    641000   309.09188      0.037658231    18.041498      766.86548     -61.367903      705.49757    
    642000   298.64531      0.037658231    12.803025      740.94724     -58.14228       682.80496    
    643000   294.90182      0.037658231    19.840966      731.65954     -55.851095      675.80845    
    644000   296.63178      0.037658231    24.269253      735.95162     -60.582073      675.36954    
    645000   312.25258      0.037658231    18.928039      774.70725     -62.172013      712.53524    
    646000   301.25058      0.037658231    15.827128      747.411       -63.907755      683.50324    
    647000   292.76641      0.037658231    17.320423      726.36153     -68.284214      658.07732    
    648000   301.48647      0.037658231    20.008898      747.99625     -63.224945      684.7713     
    649000   304.00748      0.037658231    18.843732      754.25093     -57.302039      696.94889    
    650000   295.87081      0.037658231    20.060953      734.06364     -61.357092      672.70655    
    651000   297.56259      0.037658231    18.109006      738.26098     -63.020711      675.24027    
    652000   300.00821      0.037658231    18.416129      744.32864     -57.996265      686.33238    
    653000   303.71244      0.037658231    19.441259      753.51894     -62.966404      690.55253    
    654000   308.71423      0.037658231    32.250568      765.92853     -65.487233      700.44129    
    655000   289.26337      0.037658231    14.803418      717.67039     -68.374018      649.29637    
    656000   283.83035      0.037658231    17.486838      704.19093     -66.817116      637.37381    
    657000   298.80884      0.037658231    33.356328      741.35298     -65.625067      675.72791    
    658000   309.03843      0.037658231    22.03122       766.73286     -68.771428      697.96144    
    659000   309.4899       0.037658231    3.3517639      767.85298     -65.520843      702.33214    
    660000   298.49744      0.037658231    22.043886      740.58038     -60.618422      679.96196    
    661000   294.57157      0.037658231    19.470898      730.84019     -64.381423      666.45876    
    662000   308.02284      0.037658231    21.982392      764.21316     -66.253981      697.95918    
    663000   310.63024      0.037658231    19.695207      770.68219     -66.477777      704.20441    
    664000   290.56183      0.037658231    18.512412      720.89192     -65.11695       655.77497    
    665000   308.31632      0.037658231    12.746775      764.9413      -62.369825      702.57147    
    666000   302.62438      0.037658231    23.041987      750.81943     -63.542391      687.27704    
    667000   275.49282      0.037658231    18.380822      683.50529     -58.315649      625.18964    
    668000   290.99886      0.037658231    18.164966      721.9762      -65.019338      656.95687    
    669000   314.07494      0.037658231    9.4001116      779.22859     -52.888806      726.33979    
    670000   307.01028      0.037658231    19.981349      761.70097     -50.041229      711.65974    
    671000   302.75466      0.037658231    24.900416      751.14265     -50.663883      700.47877    
    672000   287.60784      0.037658231    16.37838       713.56297     -53.887651      659.67532    
    673000   299.50627      0.037658231    21.32478       743.08332     -61.587697      681.49562    
    674000   333.68897      0.037658231    35.496105      827.89153     -57.506661      770.38487    
    675000   302.37875      0.037658231    11.835198      750.21002     -57.879226      692.3308     
    676000   289.67438      0.037658231    7.4912474      718.69011     -57.979514      660.7106     
    677000   292.77013      0.037658231    18.339213      726.37077     -55.476616      670.89416    
    678000   305.94224      0.037658231    21.228409      759.05114     -58.307784      700.74335    
    679000   306.02951      0.037658231    23.302534      759.26764     -53.93467       705.33297    
    680000   292.0815       0.037658231    19.867733      724.66225     -57.333789      667.32846    
    681000   298.20796      0.037658231    10.299896      739.86217     -62.934681      676.92749    
    682000   309.89159      0.037658231    10.765063      768.84958     -62.480539      706.36904    
    683000   309.0518       0.037658231    20.497332      766.76603     -60.307366      706.45866    
    684000   297.43505      0.037658231    26.359655      737.94455     -59.037818      678.90673    
    685000   304.03319      0.037658231    18.304904      754.31473     -57.966742      696.34799    
    686000   301.52292      0.037658231    16.811419      748.08668     -63.051834      685.03485    
    687000   293.85639      0.037658231    34.289544      729.0658      -64.043896      665.0219     
    688000   289.14348      0.037658231    14.808429      717.37294     -64.388221      652.98472    
    689000   310.75502      0.037658231    18.693244      770.99178     -70.301454      700.69032    
    690000   319.4123       0.037658231    18.62046       792.47072     -77.777597      714.69312    
    691000   293.07937      0.037658231    20.30346       727.138       -68.345508      658.79249    
    692000   283.61069      0.037658231   -1.9051005      703.64594     -65.016052      638.62989    
    693000   300.78525      0.037658231    16.571662      746.25649     -71.449119      674.80737    
    694000   297.13619      0.037658231    28.485075      737.20308     -62.667027      674.53606    
    695000   301.69964      0.037658231    3.9397312      748.52512     -68.308802      680.21632    
    696000   302.34238      0.037658231    12.91403       750.11978     -60.412651      689.70712    
    697000   308.03881      0.037658231    33.093351      764.25277     -60.369091      703.88368    
    698000   294.40699      0.037658231    17.744064      730.43187     -66.015683      664.41618    
    699000   308.15251      0.037658231    19.280133      764.53488     -59.353265      705.18161    
    700000   303.55286      0.037658231    20.61987       753.123       -59.143634      693.97937    
    701000   305.93589      0.037658231    18.630049      759.03536     -60.025354      699.01001    
    702000   297.60927      0.037658231    16.766093      738.3768      -56.433878      681.94293    
    703000   297.45894      0.037658231    20.312945      738.00384     -55.643091      682.36075    
    704000   299.49719      0.037658231    18.79516       743.06078     -59.591154      683.46962    
    705000   302.60037      0.037658231    18.807143      750.75987     -62.184705      688.57517    
    706000   301.18956      0.037658231    22.678755      747.25961     -49.455637      697.80397    
    707000   303.61403      0.037658231    20.868702      753.27478     -53.160035      700.11474    
    708000   303.03832      0.037658231    18.046502      751.84643     -56.780636      695.06579    
    709000   288.40307      0.037658231    15.29543       715.53596     -56.678054      658.8579     
    710000   295.55157      0.037658231    17.534151      733.27159     -60.9171        672.35449    
    711000   302.5783       0.037658231    22.759511      750.7051      -56.957862      693.74724    
    712000   302.83606      0.037658231    15.009736      751.34461     -62.110112      689.2345     
    713000   306.47759      0.037658231    19.626905      760.37935     -57.285868      703.09349    
    714000   314.59156      0.037658231    16.226821      780.51034     -58.183955      722.32639    
    715000   299.97351      0.037658231    16.867442      744.24256     -58.637519      685.60504    
    716000   287.03761      0.037658231    22.181461      712.14821     -56.557497      655.59072    
    717000   295.25992      0.037658231    19.671804      732.548       -59.911324      672.63667    
    718000   304.6684       0.037658231    21.109779      755.89069     -60.739081      695.15161    
    719000   306.26127      0.037658231    18.287105      759.84265     -56.771908      703.07074    
    720000   291.17572      0.037658231    14.93057       722.41499     -55.161884      667.2531     
    721000   301.59179      0.037658231    17.422072      748.25755     -60.752516      687.50503    
    722000   303.02007      0.037658231    25.995661      751.80114     -54.981407      696.81974    
    723000   297.3288       0.037658231    24.767214      737.68094     -55.588474      682.09246    
    724000   315.43753      0.037658231    12.372839      782.60921     -57.01628       725.59293    
[...]
   3823000   312.67241      0.037658231    19.143572      775.74887     -50.79097       724.9579     
   3824000   285.25323      0.037658231    18.786605      707.72112     -55.964107      651.75702    
   3825000   286.91503      0.037658231    26.942292      711.84409     -63.281984      648.5621     
   3826000   309.53661      0.037658231    19.556231      767.96887     -62.581706      705.38716    
   3827000   301.98346      0.037658231    17.281768      749.22928     -58.792011      690.43727    
   3828000   296.30048      0.037658231    17.878548      735.12967     -65.909805      669.21986    
   3829000   303.72622      0.037658231    23.097233      753.55313     -62.96396       690.58917    
   3830000   302.98867      0.037658231    12.629196      751.72324     -62.684849      689.03839    
   3831000   292.57006      0.037658231    19.069779      725.87438     -65.925798      659.94858    
   3832000   308.5997       0.037658231    33.140379      765.64436     -69.789631      695.85473    
   3833000   306.11298      0.037658231    15.059388      759.47473     -71.618082      687.85665    
   3834000   289.4391       0.037658231    6.8658218      718.10639     -71.304579      646.80181    
   3835000   301.59835      0.037658231    19.771445      748.27382     -69.673337      678.60048    
   3836000   317.30414      0.037658231    31.675012      787.24032     -59.270253      727.97006    
   3837000   305.22237      0.037658231    17.362514      757.2651      -67.841767      689.42334    
   3838000   298.66089      0.037658231    20.5072        740.98589     -64.839306      676.14658    
   3839000   306.94604      0.037658231    19.073718      761.54158     -65.821121      695.72046    
   3840000   299.03904      0.037658231    14.618162      741.9241      -72.242312      669.68179    
   3841000   299.15502      0.037658231    17.65061       742.21184     -71.170321      671.04152    
   3842000   308.60989      0.037658231    20.776528      765.66965     -70.938409      694.73124    
   3843000   290.08278      0.037658231    15.512768      719.70336     -66.07583       653.62753    
   3844000   304.17469      0.037658231    12.071275      754.66578     -66.30447       688.36131    
   3845000   308.39871      0.037658231    22.209695      765.1457      -61.683357      703.46234    
   3846000   303.16446      0.037658231    29.634925      752.15939     -61.694284      690.46511    
   3847000   291.36523      0.037658231    21.52139       722.88517     -58.857272      664.0279     
   3848000   293.92867      0.037658231    8.813389       729.24514     -59.269664      669.97547    
   3849000   302.96232      0.037658231    22.994078      751.65786     -53.223521      698.43434    
   3850000   318.55421      0.037658231    36.439986      790.34179     -51.37006       738.97173    
   3851000   298.96412      0.037658231    18.365971      741.73822     -54.905024      686.83319    
   3852000   298.60529      0.037658231    2.0074612      740.84796     -59.134317      681.71365    
   3853000   305.92254      0.037658231    20.247935      759.00225     -58.097273      700.90498    
   3854000   307.46789      0.037658231    34.75193       762.83632     -64.606409      698.22991    
   3855000   297.44421      0.037658231    22.453162      737.96728     -62.098173      675.86911    
   3856000   294.44649      0.037658231    16.722591      730.52986     -64.826602      665.70326    
   3857000   304.02627      0.037658231    23.676167      754.29756     -58.528435      695.76912    
   3858000   299.97565      0.037658231    22.689329      744.24785     -61.693018      682.55483    
   3859000   293.5156       0.037658231    18.019779      728.2203      -65.526937      662.69336    
   3860000   307.44526      0.037658231    12.76957       762.78017     -57.219312      705.56086    
   3861000   301.9393       0.037658231    31.218036      749.11972     -58.263118      690.85661    
   3862000   292.56671      0.037658231    22.432108      725.86608     -54.99517       670.87091    
   3863000   307.50299      0.037658231   -4.1802824      762.9234      -54.755019      708.16838    
   3864000   295.95101      0.037658231    15.700783      734.26262     -59.981555      674.28107    
   3865000   295.68784      0.037658231    57.592921      733.60967     -64.177782      669.43189    
   3866000   309.61762      0.037658231    36.435249      768.16984     -69.693342      698.4765     
   3867000   302.04963      0.037658231    8.4030072      749.39345     -66.850359      682.54309    
   3868000   305.50027      0.037658231    6.0863639      757.9546      -57.474971      700.47963    
   3869000   300.93292      0.037658231    22.916013      746.62287     -64.491144      682.13172    
   3870000   300.66246      0.037658231    34.682166      745.95186     -62.679824      683.27203    
   3871000   293.61442      0.037658231    20.411219      728.46547     -65.915344      662.55013    
   3872000   296.97187      0.037658231    10.878955      736.7954      -58.844746      677.95066    
   3873000   312.83471      0.037658231    18.863048      776.15154     -63.49096       712.66058    
   3874000   299.96049      0.037658231    24.182744      744.21024     -73.432052      670.77819    
   3875000   292.83634      0.037658231    14.57386       726.53503     -74.402143      652.13288    
   3876000   317.01442      0.037658231    20.362218      786.52153     -73.360296      713.16123    
   3877000   295.01882      0.037658231    20.874276      731.94982     -75.371503      656.57832    
   3878000   289.01064      0.037658231    17.548952      717.04335     -73.497789      643.54557    
   3879000   299.08227      0.037658231    13.989845      742.03136     -70.166546      671.86481    
   3880000   309.40489      0.037658231    20.853878      767.64205     -72.808289      694.83376    
   3881000   307.74858      0.037658231    19.336963      763.53271     -72.853552      690.67916    
   3882000   300.8006       0.037658231    18.522357      746.29458     -68.459353      677.83523    
   3883000   286.30119      0.037658231    18.079177      710.32114     -71.803012      638.51813    
   3884000   299.71728      0.037658231    18.681119      743.60683     -68.213601      675.39323    
   3885000   304.60533      0.037658231    18.176404      755.73423     -69.128569      686.60566    
   3886000   322.00672      0.037658231    26.850837      798.90755     -71.875052      727.03249    
   3887000   304.63907      0.037658231    14.402428      755.81792     -71.201942      684.61598    
   3888000   287.71616      0.037658231    12.10921       713.83173     -63.020142      650.81159    
   3889000   293.1091       0.037658231    24.611395      727.21177     -64.093327      663.11844    
   3890000   310.97257      0.037658231    24.110327      771.53151     -63.13009       708.40142    
   3891000   309.46043      0.037658231    15.187809      767.77986     -59.356931      708.42293    
   3892000   298.91884      0.037658231    5.8569435      741.62587     -56.645302      684.98057    
   3893000   295.97854      0.037658231    19.670467      734.33091     -58.476841      675.85407    
   3894000   309.24338      0.037658231    22.0342        767.24136     -55.798927      711.44243    
   3895000   297.26126      0.037658231    19.689587      737.51337     -59.630165      677.88321    
   3896000   298.83289      0.037658231    21.964196      741.41264     -61.28072       680.13192    
   3897000   307.25289      0.037658231    22.726849      762.3029      -60.966538      701.33636    
   3898000   302.62218      0.037658231    23.893216      750.81398     -60.642198      690.17178    
   3899000   302.30194      0.037658231    18.312888      750.01944     -59.306596      690.71284    
   3900000   303.87322      0.037658231    18.021483      753.91784     -65.508399      688.40944    
   3901000   295.31992      0.037658231    12.794566      732.69687     -58.737762      673.9591     
   3902000   285.88712      0.037658231    20.058671      709.29382     -66.132732      643.16109    
   3903000   317.96287      0.037658231    21.934211      788.87463     -66.151885      722.72275    
   3904000   304.47883      0.037658231    14.279856      755.42036     -77.000105      678.42026    
   3905000   293.43677      0.037658231    13.059653      728.02472     -74.463556      653.56117    
   3906000   290.32962      0.037658231    18.519623      720.31579     -74.283612      646.03218    
   3907000   304.5185       0.037658231    21.076283      755.51879     -75.231272      680.28752    
   3908000   299.11253      0.037658231    19.325508      742.10643     -74.433716      667.67271    
   3909000   285.08891      0.037658231    15.990379      707.31343     -69.363864      637.94957    
   3910000   300.51386      0.037658231    31.809155      745.58316     -73.17171       672.41145    
   3911000   315.37522      0.037658231    14.611569      782.45462     -74.308177      708.14645    
   3912000   293.64644      0.037658231    14.354721      728.5449      -67.809887      660.73502    
   3913000   290.4274       0.037658231    38.309833      720.55838     -58.986927      661.57146    
   3914000   308.35213      0.037658231    31.661861      765.03012     -60.026836      705.00329    
   3915000   315.74382      0.037658231    5.6326881      783.36913     -58.134303      725.23482    
   3916000   300.90729      0.037658231   -10.504599      746.55928     -63.136003      683.42327    
   3917000   290.4697       0.037658231    26.148262      720.66334     -58.041465      662.62188    
   3918000   312.64613      0.037658231    30.875072      775.68366     -54.594452      721.08921    
   3919000   304.99259      0.037658231    7.3077496      756.69502     -58.805035      697.88998    
   3920000   296.26739      0.037658231    16.287495      735.04755     -58.678302      676.36925    
   3921000   290.83972      0.037658231    25.751318      721.58136     -56.116576      665.46478    
   3922000   308.37722      0.037658231    30.661691      765.09238     -59.161893      705.93049    
   3923000   306.94158      0.037658231    25.040743      761.53052     -56.238609      705.29191    
   3924000   302.736        0.037658231    18.223092      751.09637     -55.422435      695.67393    
   3925000   300.74113      0.037658231    15.25142       746.14703     -58.473566      687.67346    
   3926000   300.77397      0.037658231    23.495508      746.22852     -60.194579      686.03394    
   3927000   294.30672      0.037658231    24.999497      730.18309     -53.743751      676.43934    
   3928000   309.34656      0.037658231    3.2448592      767.49733     -57.780734      709.7166     
   3929000   302.28994      0.037658231   -6.4897255      749.98967     -66.78013       683.20954    
   3930000   293.16641      0.037658231    26.069512      727.35395     -64.636622      662.71733    
   3931000   310.24423      0.037658231    26.384622      769.72448     -62.960566      706.76391    
   3932000   313.9289       0.037658231    3.2570953      778.86626     -60.574162      718.2921     
   3933000   290.97919      0.037658231    21.812646      721.92738     -57.518084      664.4093     
   3934000   300.86532      0.037658231    27.162102      746.45514     -67.173854      679.28129    
   3935000   304.38644      0.037658231    5.4261034      755.19115     -67.540086      687.65106    
   3936000   310.47919      0.037658231   -10.257781      770.30743     -57.789342      712.51809    
   3937000   299.76778      0.037658231    3.4612197      743.73211     -63.077056      680.65506    
   3938000   295.79955      0.037658231    20.756982      733.88684     -62.5676        671.31924    
   3939000   308.19693      0.037658231    50.805571      764.64507     -59.073157      705.57191    
   3940000   303.75513      0.037658231    7.609543       753.62484     -60.491431      693.13341    
   3941000   300.56406      0.037658231    24.343246      745.70771     -60.755855      684.95185    
   3942000   306.94676      0.037658231    26.395749      761.54338     -62.326062      699.21731    
   3943000   312.50419      0.037658231    5.8140023      775.33151     -57.390511      717.941      
   3944000   289.35669      0.037658231    16.669273      717.90193     -60.896245      657.00568    
   3945000   301.87291      0.037658231    17.615489      748.95501     -58.483886      690.47112    
   3946000   294.70738      0.037658231    15.185451      731.17714     -65.591715      665.58542    
   3947000   318.75278      0.037658231    18.603632      790.83443     -63.076935      727.7575     
   3948000   311.0725       0.037658231    22.879061      771.77945     -62.497429      709.28202    
   3949000   291.61763      0.037658231    21.403366      723.51139     -68.150932      655.36046    
   3950000   292.4179       0.037658231    7.8704671      725.49686     -68.565177      656.93168    
   3951000   311.48643      0.037658231    0.51587339     772.80642     -68.554433      704.25198    
   3952000   298.98904      0.037658231    22.192187      741.80005     -67.226891      674.57316    
   3953000   302.73847      0.037658231    26.919818      751.10249     -68.055687      683.04681    
   3954000   295.50087      0.037658231   -0.4891838      733.14581     -67.429202      665.71661    
   3955000   299.8198       0.037658231   -9.3352264      743.8612      -66.107428      677.75377    
   3956000   299.66248      0.037658231    24.451457      743.47087     -62.784009      680.68686    
   3957000   287.21602      0.037658231    33.762408      712.59085     -64.292015      648.29884    
   3958000   304.32873      0.037658231    13.238546      755.04797     -68.56254       686.48543    
   3959000   292.23874      0.037658231    2.6623319      725.05237     -65.234824      659.81755    
   3960000   299.85497      0.037658231    31.641598      743.94846     -66.461431      677.48703    
   3961000   300.45266      0.037658231    30.017717      745.43134     -66.856835      678.57451    
   3962000   296.87599      0.037658231    9.8092318      736.55752     -64.922799      671.63472    
   3963000   294.56274      0.037658231    38.379321      730.81827     -58.18923       672.62904    
   3964000   304.91929      0.037658231    7.9215496      756.51316     -66.448251      690.06491    
   3965000   309.59918      0.037658231    15.851017      768.1241      -61.564954      706.55915    
   3966000   309.95896      0.037658231    25.880665      769.01672     -61.775477      707.24124    
   3967000   291.67286      0.037658231    23.75422       723.64842     -61.08106       662.56735    
   3968000   299.61924      0.037658231    15.66581       743.3636      -54.973776      688.38982    
   3969000   311.52977      0.037658231    19.710078      772.91395     -59.954631      712.95932    
   3970000   305.78481      0.037658231    22.85876       758.66054     -56.276439      702.3841     
   3971000   292.33837      0.037658231    21.408223      725.29954     -52.671058      672.62848    
   3972000   306.03988      0.037658231    16.486955      759.29339     -50.601452      708.69193    
   3973000   291.67724      0.037658231    14.069534      723.65927     -50.471052      673.18822    
   3974000   311.79828      0.037658231    22.997257      773.58012     -52.329171      721.25095    
   3975000   305.46425      0.037658231    23.509886      757.86523     -59.379538      698.48569    
   3976000   284.60736      0.037658231    20.885061      706.1187      -51.224815      654.89388    
   3977000   289.81262      0.037658231    18.509378      719.03311     -52.990107      666.043      
   3978000   305.15328      0.037658231    22.367709      757.0937      -50.743847      706.34985    
   3979000   295.28647      0.037658231    19.115705      732.61388     -53.914154      678.69972    
   3980000   297.08721      0.037658231    16.623904      737.08156     -58.103963      678.9776     
   3981000   306.5814       0.037658231    16.299423      760.63691     -56.535604      704.1013     
   3982000   306.01843      0.037658231    16.027324      759.24015     -59.323542      699.91661    
   3983000   299.8093       0.037658231    21.966284      743.83514     -59.954295      683.88085    
   3984000   296.70701      0.037658231    22.114174      736.13828     -54.547445      681.59084    
   3985000   299.20202      0.037658231    18.613283      742.32846     -56.888117      685.44034    
   3986000   303.18933      0.037658231    24.328617      752.2211      -53.837771      698.38332    
   3987000   304.09126      0.037658231    19.885335      754.45879     -56.372119      698.08667    
   3988000   311.28209      0.037658231    20.487667      772.29945     -48.023909      724.27554    
   3989000   308.45344      0.037658231    17.883448      765.28149     -59.076174      706.20532    
   3990000   298.29874      0.037658231    10.434723      740.0874      -55.476074      684.61132    
   3991000   296.48524      0.037658231    25.019795      735.58806     -59.226619      676.36144    
   3992000   305.80755      0.037658231    25.617869      758.71695     -69.663496      689.05346    
   3993000   307.78767      0.037658231    15.334319      763.62969     -60.868865      702.76082    
   3994000   294.25145      0.037658231    17.957059      730.04596     -67.19288       662.85308    
   3995000   296.69992      0.037658231    28.428693      736.12069     -63.2011        672.91959    
   3996000   304.70158      0.037658231    31.650606      755.97303     -59.221263      696.75176    
   3997000   297.91813      0.037658231    15.088952      739.14309     -66.710737      672.43235    
   3998000   314.002        0.037658231    37.855442      779.04761     -58.484074      720.56353    
   3999000   311.19766      0.037658231    10.108995      772.08998     -56.62838       715.4616     
   4000000   300.15924      0.037658231    11.255461      744.70335     -57.884891      686.81846    
Loop time of 7343.54 on 1 procs for 4000000 steps with 1500 atoms

Performance: 11.765 ns/day, 2.040 hours/ns, 544.697 timesteps/s, 817.045 katom-step/s
99.5% CPU use with 1 MPI tasks x 1 OpenMP threads

MPI task timing breakdown:
Section |  min time  |  avg time  |  max time  |%varavg| %total
---------------------------------------------------------------
Pair    | 629.9      | 629.9      | 629.9      |   0.0 |  8.58
Bond    | 183.64     | 183.64     | 183.64     |   0.0 |  2.50
Kspace  | 5674.2     | 5674.2     | 5674.2     |   0.0 | 77.27
Neigh   | 0.03689    | 0.03689    | 0.03689    |   0.0 |  0.00
Comm    | 30.94      | 30.94      | 30.94      |   0.0 |  0.42
Output  | 0.13655    | 0.13655    | 0.13655    |   0.0 |  0.00
Modify  | 805.77     | 805.77     | 805.77     |   0.0 | 10.97
Other   |            | 18.91      |            |       |  0.26

Nlocal:           1500 ave        1500 max        1500 min
Histogram: 1 0 0 0 0 0 0 0 0 0
Nghost:           1740 ave        1740 max        1740 min
Histogram: 1 0 0 0 0 0 0 0 0 0
Neighs:              0 ave           0 max           0 min
Histogram: 1 0 0 0 0 0 0 0 0 0

Total # of neighbors = 0
Ave neighs/atom = 0
Ave special neighs/atom = 2
Neighbor list builds = 15328
Dangerous builds = 0
write_data	last_conf.data pair ij
System init for write_data ...
PPPM initialization ...
  using 12-bit tables for long-range coulomb (src/kspace.cpp:342)
  G vector (1/distance) = 0.17633375
  grid = 24 24 24
  stencil order = 5
  estimated absolute RMS force accuracy = 0.029674313
  estimated relative force accuracy = 8.9363312e-05
  using double precision FFTW3
  3d grid and FFT values/proc = 24389 13824
Generated 1 of 1 mixed pair_coeff terms from arithmetic mixing rule
Total wall time: 2:02:23
