LAMMPS data file via write_data, version 29 Aug 2024, timestep = 0, units = real

1500 atoms
2 atom types
1000 bonds
1 bond types
500 angles
1 angle types

0 105 xlo xhi
0 105 ylo yhi
0 105 zlo zhi

Masses

1 12.0107
2 15.9994

PairIJ Coeffs # lj/cut/coul/long/gpu

1 1 0.053649 2.8 12
1 2 0.0917684 2.925 12
2 2 0.156973 3.05 12

Bond Coeffs # harmonic

1 0 1.16

Angle Coeffs # harmonic

1 0 180

Atoms # full

1 1 1 0.7 7.736050497151935 29.800705632567734 10.459566565910153 0 0 0
2 1 2 -0.35 6.72838975290972 30.03839165820129 9.936379049113595 0 0 0
3 1 2 -0.35 8.74371124139415 29.563019606934176 10.98275408270671 0 0 0
4 2 1 0.7 23.935273251931775 25.137545217358298 71.72246814087148 0 0 0
5 2 2 -0.35 24.28259310806136 25.63811230817051 70.73535036414273 0 0 0
6 2 2 -0.35 23.58795339580219 24.636978126546087 72.70958591760024 0 0 0
7 3 1 0.7 39.522043626998574 16.98723896499129 9.525284608604984 0 0 0
8 3 2 -0.35 39.0594347720456 15.923475750154779 9.524351827928951 0 0 0
9 3 2 -0.35 39.98465248195155 18.051002179827798 9.526217389281017 0 0 0
10 4 1 0.7 71.45841682397686 11.611560579208453 65.49865475646158 0 0 0
11 4 2 -0.35 70.37335750621786 11.810604517359614 65.85730191960334 0 0 0
12 4 2 -0.35 72.54347614173587 11.412516641057291 65.14000759331981 0 0 0
13 5 1 0.7 15.890491849691838 56.49651777068922 21.974171973752867 0 0 0
14 5 2 -0.35 15.717833074647416 56.781496220209455 23.08528683312124 0 0 0
15 5 2 -0.35 16.06315062473626 56.21153932116899 20.863057114384493 0 0 0
16 6 1 0.7 34.90836286447401 69.85466321457861 42.32464742256545 0 0 0
17 6 2 -0.35 33.82088868008459 70.02822285976886 41.96012451814378 0 0 0
18 6 2 -0.35 35.99583704886342 69.68110356938836 42.68917032698712 0 0 0
19 7 1 0.7 80.3492310574973 24.526383357367656 89.92508727820827 0 0 0
20 7 2 -0.35 79.32785845793214 24.78905947361498 89.44197313971641 0 0 0
21 7 2 -0.35 81.37060365706247 24.263707241120333 90.40820141670012 0 0 0
22 8 1 0.7 0.9418848463994846 80.25861343613761 76.5160211648401 0 0 0
23 8 2 -0.35 0.4669914466697811 81.276045717961 76.80741061351117 0 0 0
24 8 2 -0.35 1.416778246129188 79.24118115431422 76.22463171616903 0 0 0
25 9 1 0.7 69.76771746751281 51.02747648769407 83.79732867414008 0 0 0
26 9 2 -0.35 69.42696046446403 51.73949506284779 82.94732031329339 0 0 0
27 9 2 -0.35 70.10847447056159 50.315457912540346 84.64733703498676 0 0 0
28 10 1 0.7 16.70302627221822 62.76255717164025 20.298383757610985 0 0 0
29 10 2 -0.35 16.709605582192566 61.803015197422994 20.9501781365339 0 0 0
30 10 2 -0.35 16.696446962243876 63.72209914585751 19.64658937868807 0 0 0
31 11 1 0.7 9.935814167808655 41.22871836006116 36.06947754792379 0 0 0
32 11 2 -0.35 9.541403196256109 41.199540281213494 37.15997680295963 0 0 0
33 11 2 -0.35 10.3302251393612 41.25789643890882 34.978978292887945 0 0 0
34 12 1 0.7 54.70914795515554 11.649682299070845 76.21040048366898 0 0 0
35 12 2 -0.35 53.78980917652877 12.333090590352432 76.39307318967792 0 0 0
36 12 2 -0.35 55.6284867337823 10.966274007789258 76.02772777766003 0 0 0
37 13 1 0.7 78.20092902435033 38.014112256008254 83.1846867307018 0 0 0
38 13 2 -0.35 78.28589920117247 36.86326969799978 83.0666127042297 0 0 0
39 13 2 -0.35 78.11595884752819 39.164954814016724 83.3027607571739 0 0 0
40 14 1 0.7 10.02988290508738 47.2419858035827 91.05540081442119 0 0 0
41 14 2 -0.35 9.328863499578322 46.901153857838196 91.91447320826221 0 0 0
42 14 2 -0.35 10.730902310596438 47.582817749327205 90.19632842058017 0 0 0
43 15 1 0.7 98.12148797703976 102.84843010727708 63.56481300600097 0 0 0
44 15 2 -0.35 97.33485089982597 102.85454507543729 62.712308040668255 0 0 0
45 15 2 -0.35 98.90812505425356 102.84231513911688 64.41731797133367 0 0 0
46 16 1 0.7 63.81219185833456 21.508563028885312 84.41882647546885 0 0 0
47 16 2 -0.35 62.66266455471366 21.358387705489765 84.378399374743 0 0 0
48 16 2 -0.35 64.96171916195546 21.65873835228086 84.4592535761947 0 0 0
49 17 1 0.7 67.21657320494604 13.945855528091014 27.993860625659053 0 0 0
50 17 2 -0.35 66.24484673496875 14.517544297934956 28.266843441931037 0 0 0
51 17 2 -0.35 68.18829967492334 13.374166758247073 27.72087780938707 0 0 0
52 18 1 0.7 92.8155354516653 70.70433613877015 42.77748430975596 0 0 0
53 18 2 -0.35 91.99989691477683 71.32612159221509 42.23552801352285 0 0 0
54 18 2 -0.35 93.63117398855377 70.0825506853252 43.31944060598907 0 0 0
55 19 1 0.7 26.178794068367587 36.99190705408897 17.981858073259637 0 0 0
56 19 2 -0.35 25.9990534298596 37.30352565584358 16.87904931834823 0 0 0
57 19 2 -0.35 26.358534706875574 36.68028845233436 19.084666828171045 0 0 0
58 20 1 0.7 31.088637274731248 26.726676408074177 5.250390502740811 0 0 0
59 20 2 -0.35 32.009096401162125 26.661984531644634 5.953362733838262 0 0 0
60 20 2 -0.35 30.16817814830037 26.79136828450372 4.54741827164336 0 0 0
61 21 1 0.7 43.31317956480811 104.6089457299602 42.55088344102301 0 0 0
62 21 2 -0.35 44.122816235937165 103.88047524492643 42.95015679750667 0 0 0
63 21 2 -0.35 42.503542893679054 0.337416214993965 42.15161008453935 0 1 0
64 22 1 0.7 102.69799327370617 55.17295117963708 36.790476160492034 0 0 0
65 22 2 -0.35 101.77268826117637 54.48857777770362 36.64541175923098 0 0 0
66 22 2 -0.35 103.62329828623598 55.857324581570545 36.935540561753086 0 0 0
67 23 1 0.7 97.53282938968988 79.26355251775288 47.52716587275601 0 0 0
68 23 2 -0.35 98.29546813493634 79.86326405813806 46.89129779478878 0 0 0
69 23 2 -0.35 96.77019064444342 78.66384097736771 48.16303395072324 0 0 0
70 24 1 0.7 54.07682341014818 94.17105436053642 67.91063753557887 0 0 0
71 24 2 -0.35 53.257385694988244 94.91093117485973 68.26659277237172 0 0 0
72 24 2 -0.35 54.896261125308115 93.4311775462131 67.55468229878602 0 0 0
73 25 1 0.7 24.085060474036755 22.61138713574567 34.583590477511095 0 0 0
74 25 2 -0.35 23.041239807108564 22.128020877113546 34.43393929873334 0 0 0
75 25 2 -0.35 25.128881140964946 23.094753394377793 34.73324165628885 0 0 0
76 26 1 0.7 71.40515552899109 61.4489757532482 97.93548484236723 0 0 0
77 26 2 -0.35 70.3240893855737 61.74588407827017 97.63758982715332 0 0 0
78 26 2 -0.35 72.48622167240848 61.152067428226225 98.23337985758114 0 0 0
79 27 1 0.7 21.693745666040922 46.783409149750796 48.75757986156157 0 0 0
80 27 2 -0.35 20.847061044976837 46.709172577277776 47.96814076716541 0 0 0
81 27 2 -0.35 22.540430287105007 46.857645722223815 49.547018955957725 0 0 0
82 28 1 0.7 48.64473326534253 42.03199061194062 96.66621488596603 0 0 0
83 28 2 -0.35 47.81443653603875 42.58654292435695 97.25670542280903 0 0 0
84 28 2 -0.35 49.47502999464631 41.477438299524295 96.07572434912302 0 0 0
85 29 1 0.7 4.073588430915768 4.8007584013048366 46.34645073038826 0 0 0
86 29 2 -0.35 2.9142157560742232 4.825552225481524 46.375438091659284 0 0 0
87 29 2 -0.35 5.232961105757313 4.775964577128149 46.31746336911724 0 0 0
88 30 1 0.7 54.79742563553034 25.3326563585236 95.9554177061447 0 0 0
89 30 2 -0.35 53.87760014619403 25.38169067055207 95.25035266984584 0 0 0
90 30 2 -0.35 55.71725112486665 25.28362204649513 96.66048274244356 0 0 0
91 31 1 0.7 27.705387174014646 74.44223366418957 75.62119403417277 0 0 0
92 31 2 -0.35 28.017567315648602 73.45669165181162 75.0950281848368 0 0 0
93 31 2 -0.35 27.39320703238069 75.42777567656752 76.14735988350874 0 0 0
94 32 1 0.7 45.40813234188041 34.48026998410014 14.89762277104781 0 0 0
95 32 2 -0.35 44.616761067416306 33.63281523592384 14.863682297472465 0 0 0
96 32 2 -0.35 46.199503616344515 35.32772473227644 14.931563244623156 0 0 0
97 33 1 0.7 64.34591300056591 66.75980051130047 1.9671934270147204 0 0 0
98 33 2 -0.35 63.20478148847424 66.59643474967474 2.096539861212989 0 0 0
99 33 2 -0.35 65.48704451265759 66.9231662729262 1.837846992816452 0 0 0
100 34 1 0.7 92.61992783640508 38.12714646017512 92.9505561631874 0 0 0
101 34 2 -0.35 91.62131021312709 38.07473884132129 92.36266477528936 0 0 0
102 34 2 -0.35 93.61854545968308 38.17955407902895 93.53844755108544 0 0 0
103 35 1 0.7 29.997434690593476 61.88484480459469 73.58663082289817 0 0 0
104 35 2 -0.35 28.851223129867616 62.063046895258985 73.5800678250112 0 0 0
105 35 2 -0.35 31.143646251319336 61.7066427139304 73.59319382078515 0 0 0
106 36 1 0.7 80.50424044975277 4.769238994815032 41.59978585625057 0 0 0
107 36 2 -0.35 79.52360765249628 4.21439080091379 41.875653213271015 0 0 0
108 36 2 -0.35 81.48487324700926 5.324087188716273 41.323918499230125 0 0 0
109 37 1 0.7 77.6008860033941 33.091059044511546 81.4293611056308 0 0 0
110 37 2 -0.35 76.44167934009015 33.08848004023716 81.38654451435276 0 0 0
111 37 2 -0.35 78.76009266669804 33.093638048785934 81.47217769690884 0 0 0
112 38 1 0.7 13.272102336991624 44.22397781825809 82.39519146382585 0 0 0
113 38 2 -0.35 13.315090445969329 44.83326000296408 81.40902350557208 0 0 0
114 38 2 -0.35 13.22911422801392 43.6146956335521 83.38135942207963 0 0 0
115 39 1 0.7 75.98293252102235 35.146880822790266 88.6259886359917 0 0 0
116 39 2 -0.35 75.19434565661894 34.432309830896386 88.16434044219669 0 0 0
117 39 2 -0.35 76.77151938542576 35.861451814684145 89.08763682978672 0 0 0
118 40 1 0.7 6.9910051124128545 2.822924322831875 89.88909383532082 0 0 0
119 40 2 -0.35 6.73932685292149 2.863505213743725 91.02073478765163 0 0 0
120 40 2 -0.35 7.242683371904219 2.782343431920025 88.75745288299001 0 0 0
121 41 1 0.7 26.00009023724128 78.51661731419927 93.78719974718392 0 0 0
122 41 2 -0.35 25.479057806501217 79.26933858820233 93.07478421550294 0 0 0
123 41 2 -0.35 26.521122667981345 77.7638960401962 94.4996152788649 0 0 0
124 42 1 0.7 21.466150920123862 1.5985145217732128 91.23356744238806 0 0 0
125 42 2 -0.35 20.32353058998215 1.4320340386978 91.34448646646338 0 0 0
126 42 2 -0.35 22.608771250265576 1.7649950048486256 91.12264841831275 0 0 0
127 43 1 0.7 47.568004216331985 5.446863891764946 90.44142889345132 0 0 0
128 43 2 -0.35 48.67306378833949 5.504630198932939 90.09342545083794 0 0 0
129 43 2 -0.35 46.46294464432448 5.389097584596953 90.78943233606469 0 0 0
130 44 1 0.7 69.09541223621713 91.59345410139926 6.183082217435857 0 0 0
131 44 2 -0.35 68.47463338056272 92.47577590811487 5.756770310768319 0 0 0
132 44 2 -0.35 69.71619109187154 90.71113229468365 6.609394124103394 0 0 0
133 45 1 0.7 74.06282844443936 103.95766569252949 16.487294343061418 0 0 0
134 45 2 -0.35 72.94086385503853 103.72567237513712 16.668883331758177 0 0 0
135 45 2 -0.35 75.1847930338402 104.18965900992185 16.305705354364658 0 0 0
136 46 1 0.7 6.956023833228286 44.892565067807475 84.34109464024245 0 0 0
137 46 2 -0.35 6.648274960780041 44.54983592347767 85.40572009791937 0 0 0
138 46 2 -0.35 7.263772705676532 45.235294212137276 83.27646918256552 0 0 0
139 47 1 0.7 20.777618554782876 84.43505023579814 24.889313059341774 0 0 0
140 47 2 -0.35 20.054008617028302 84.58330999586198 25.783744555616718 0 0 0
141 47 2 -0.35 21.50122849253745 84.2867904757343 23.99488156306683 0 0 0
142 48 1 0.7 99.68458835719368 18.87651935400279 52.66078272492662 0 0 0
143 48 2 -0.35 98.67454000989589 18.311541819454202 52.739540083798175 0 0 0
144 48 2 -0.35 100.69463670449146 19.44149688855138 52.58202536605506 0 0 0
145 49 1 0.7 24.77525784157927 72.75854342279888 22.839306980762306 0 0 0
146 49 2 -0.35 24.95542961279516 71.86780900625504 22.11838373100458 0 0 0
147 49 2 -0.35 24.595086070363376 73.64927783934272 23.56023023052003 0 0 0
148 50 1 0.7 85.23242567211037 91.37827115896077 64.60336865373112 0 0 0
149 50 2 -0.35 84.56263355671933 90.58565114370961 65.12176235892366 0 0 0
150 50 2 -0.35 85.9022177875014 92.17089117421193 64.08497494853859 0 0 0
151 51 1 0.7 88.81696325904548 66.70149477743612 72.02272436908574 0 0 0
152 51 2 -0.35 87.99305349238439 67.25643340348866 72.62173673766874 0 0 0
153 51 2 -0.35 89.64087302570657 66.14655615138359 71.42371200050273 0 0 0
154 52 1 0.7 45.928471223883555 64.8158598108291 90.15584060463861 0 0 0
155 52 2 -0.35 45.877324764579406 63.65701966072522 90.16441651321242 0 0 0
156 52 2 -0.35 45.979617683187705 65.97469996093298 90.14726469606481 0 0 0
157 53 1 0.7 99.21304216106098 73.59960095193217 88.49319912423063 0 0 0
158 53 2 -0.35 98.17337079964116 73.521756259456 87.98464857207603 0 0 0
159 53 2 -0.35 100.2527135224808 73.67744564440835 89.00174967638523 0 0 0
160 54 1 0.7 85.19768094420324 32.42362922403199 98.93636830567213 0 0 0
161 54 2 -0.35 84.47747066900845 33.29309761960655 99.2026799062472 0 0 0
162 54 2 -0.35 85.91789121939803 31.554160828457437 98.67005670509707 0 0 0
163 55 1 0.7 43.54211343151616 67.30044349203838 58.553770689085944 0 0 0
164 55 2 -0.35 42.71886966997251 67.13352171155316 59.35377495674901 0 0 0
165 55 2 -0.35 44.3653571930598 67.46736527252361 57.75376642142288 0 0 0
166 56 1 0.7 53.22397146756946 40.2884554398658 88.07057782452114 0 0 0
167 56 2 -0.35 52.084915482004334 40.23357706374464 87.85811647372398 0 0 0
168 56 2 -0.35 54.36302745313459 40.34333381598696 88.2830391753183 0 0 0
169 57 1 0.7 17.201496726927115 40.55548946399031 61.11142128524903 0 0 0
170 57 2 -0.35 16.093154651942328 40.623244954515776 60.775881364640355 0 0 0
171 57 2 -0.35 18.3098388019119 40.48773397346485 61.446961205857704 0 0 0
172 58 1 0.7 94.65754118033571 54.29461790215904 79.64308158710743 0 0 0
173 58 2 -0.35 95.03058897232613 53.28596324630164 80.07788169072779 0 0 0
174 58 2 -0.35 94.2844933883453 55.30327255801644 79.20828148348707 0 0 0
175 59 1 0.7 21.27223451448243 102.4454849061768 11.264818113420539 0 0 0
176 59 2 -0.35 21.016197457261566 101.3887204660639 10.860721660277784 0 0 0
177 59 2 -0.35 21.528271571703296 103.5022493462897 11.668914566563293 0 0 0
178 60 1 0.7 12.798032259008862 56.52817716194698 29.073560842812793 0 0 0
179 60 2 -0.35 11.778224531248874 56.26290946682196 28.58856058680866 0 0 0
180 60 2 -0.35 13.817839986768849 56.793444857072 29.558561098816924 0 0 0
181 61 1 0.7 74.33708515453017 93.39019218850423 68.9601121907868 0 0 0
182 61 2 -0.35 73.2667097482305 93.68488104959451 69.2963486622442 0 0 0
183 61 2 -0.35 75.40746056082985 93.09550332741395 68.6238757193294 0 0 0
184 62 1 0.7 22.605590553770583 42.16043722217923 50.46839316630196 0 0 0
185 62 2 -0.35 23.16964334927334 42.97154833960824 51.07629381531345 0 0 0
186 62 2 -0.35 22.041537758267825 41.349326104750226 49.86049251729047 0 0 0
187 63 1 0.7 32.283946036959044 61.28104317061651 5.492568551792097 0 0 0
188 63 2 -0.35 31.220077239693925 61.7062325808593 5.31091738162505 0 0 0
189 63 2 -0.35 33.34781483422417 60.855853760373726 5.674219721959144 0 0 0
190 64 1 0.7 18.599649969767615 19.317041884324066 1.5229498345977392 0 0 0
191 64 2 -0.35 18.639897299439678 20.224181297342565 0.8010923432584011 0 0 0
192 64 2 -0.35 18.559402640095552 18.409902471305568 2.2448073259370775 0 0 0
193 65 1 0.7 81.21787008420465 28.742505227561345 75.28535962350915 0 0 0
194 65 2 -0.35 81.48787833648659 28.128698904885606 76.23189929089924 0 0 0
195 65 2 -0.35 80.94786183192271 29.356311550237084 74.33881995611907 0 0 0
196 66 1 0.7 71.0391923184689 0.7052965069679993 93.91839261116385 0 0 0
197 66 2 -0.35 70.29638491589768 0.9321240664994254 93.05677412196901 0 0 0
198 66 2 -0.35 71.78199972104014 0.4784689474365732 94.78001110035869 0 0 0
199 67 1 0.7 21.42461583084642 38.51826903574088 51.547683696983235 0 0 0
200 67 2 -0.35 21.02839032953583 37.526924195481456 51.093986926218676 0 0 0
201 67 2 -0.35 21.82084133215701 39.5096138760003 52.00138046774779 0 0 0
202 68 1 0.7 6.9198951972275475 67.67857980340654 8.89075585356483 0 0 0
203 68 2 -0.35 6.265197238575732 68.34428283325805 8.202417231240272 0 0 0
204 68 2 -0.35 7.574593155879363 67.01287677355502 9.579094475889388 0 0 0
205 69 1 0.7 11.933630864105016 18.533933012994908 69.81214940539196 0 0 0
206 69 2 -0.35 10.83126209500691 18.590143164051664 70.16883346143499 0 0 0
207 69 2 -0.35 13.035999633203122 18.47772286193815 69.45546534934894 0 0 0
208 70 1 0.7 62.79505642261126 41.51329482743205 93.94616465035182 0 0 0
209 70 2 -0.35 61.68128605376614 41.59141113313175 93.63150068948813 0 0 0
210 70 2 -0.35 63.908826791456384 41.43517852173235 94.2608286112155 0 0 0
211 71 1 0.7 68.18927846298985 87.20312747042772 32.96339547865251 0 0 0
212 71 2 -0.35 69.2325996335723 86.76405147794807 33.21695653213365 0 0 0
213 71 2 -0.35 67.14595729240739 87.64220346290736 32.709834425171366 0 0 0
214 72 1 0.7 35.787809712713496 45.71784157572213 94.76336316194542 0 0 0
215 72 2 -0.35 34.63056524380577 45.73612440184554 94.84115119091784 0 0 0
216 72 2 -0.35 36.945054181621224 45.69955874959873 94.685575132973 0 0 0
217 73 1 0.7 47.84466281665706 35.2479595552422 2.456244955517466 0 0 0
218 73 2 -0.35 47.792775676124585 36.34193432779135 2.838510467528939 0 0 0
219 73 2 -0.35 47.89654995718954 34.153984782693044 2.073979443505993 0 0 0
220 74 1 0.7 17.10896738204591 60.414790045663146 41.37629746057852 0 0 0
221 74 2 -0.35 15.959616636850576 60.510405258725704 41.25199703600189 0 0 0
222 74 2 -0.35 18.258318127241246 60.31917483260059 41.50059788515515 0 0 0
223 75 1 0.7 101.43141994319456 82.87498527107527 54.87745096202821 0 0 0
224 75 2 -0.35 100.89413007432961 82.1826613642704 54.117446221989354 0 0 0
225 75 2 -0.35 101.9687098120595 83.56730917788015 55.63745570206707 0 0 0
226 76 1 0.7 5.318318808133863 29.984208305824648 49.58899599480862 0 0 0
227 76 2 -0.35 6.275733040059597 30.31287767541758 50.155506748455394 0 0 0
228 76 2 -0.35 4.360904576208128 29.655538936231714 49.022485241161846 0 0 0
229 77 1 0.7 57.25568474841103 76.29356654421127 5.972908558777025 0 0 0
230 77 2 -0.35 56.43615422976842 76.89907376596493 5.418534377003069 0 0 0
231 77 2 -0.35 58.075215267053636 75.68805932245762 6.527282740550981 0 0 0
232 78 1 0.7 6.674147365463035 32.394771337227326 33.92186477962968 0 0 0
233 78 2 -0.35 6.810099954009208 31.887512921698317 32.88755061384513 0 0 0
234 78 2 -0.35 6.538194776916863 32.902029752756334 34.95617894541423 0 0 0
235 79 1 0.7 79.78135123605902 35.17022444408863 60.96223179761424 0 0 0
236 79 2 -0.35 78.86841414697084 34.546407369668536 60.611520906666826 0 0 0
237 79 2 -0.35 80.69428832514721 35.79404151850873 61.31294268856165 0 0 0
238 80 1 0.7 2.229822502578526 96.62680083728712 76.64167228464115 0 0 0
239 80 2 -0.35 3.1649318515095484 96.03368640633691 76.98719475473594 0 0 0
240 80 2 -0.35 1.2947131536475034 97.21991526823733 76.29614981454635 0 0 0
241 81 1 0.7 81.58608796381675 22.380407868130323 37.51503966633 0 0 0
242 81 2 -0.35 80.8420842364959 23.216195187852012 37.820846811317004 0 0 0
243 81 2 -0.35 82.33009169113761 21.544620548408634 37.20923252134299 0 0 0
244 82 1 0.7 95.27167200821995 85.99144215276067 38.16826144846541 0 0 0
245 82 2 -0.35 95.5470708560217 84.95174445242475 38.6027544478862 0 0 0
246 82 2 -0.35 94.9962731604182 87.03113985309659 37.73376844904462 0 0 0
247 83 1 0.7 48.97016435813632 51.55236719714122 85.6354823525229 0 0 0
248 83 2 -0.35 48.08688669641908 51.60099111491689 84.8851115862137 0 0 0
249 83 2 -0.35 49.85344201985357 51.50374327936556 86.3858531188321 0 0 0
250 84 1 0.7 40.551898852247696 0.7640097270552114 30.71148261693841 0 0 0
251 84 2 -0.35 41.70300526247988 0.6206744470078066 30.708477651693908 0 0 0
252 84 2 -0.35 39.400792442015515 0.9073450071026162 30.714487582182915 0 0 0
253 85 1 0.7 92.88834288385154 34.37884889281301 95.31334150829973 0 0 0
254 85 2 -0.35 93.79432049877097 33.69874908757755 95.06380430429282 0 0 0
255 85 2 -0.35 91.9823652689321 35.05894869804847 95.56287871230664 0 0 0
256 86 1 0.7 51.3307299936799 35.57900377809023 1.3164983626066233 0 0 0
257 86 2 -0.35 50.69537933802855 35.89414403772057 2.234439624955975 0 0 0
258 86 2 -0.35 51.96608064933125 35.26386351845989 0.39855710025727187 0 0 0
259 87 1 0.7 76.38798032951912 17.785398227994047 89.18801789599844 0 0 0
260 87 2 -0.35 76.07454489864597 17.276359399265967 90.18211935033824 0 0 0
261 87 2 -0.35 76.70141576039228 18.294437056722128 88.19391644165864 0 0 0
262 88 1 0.7 3.016778045807396 92.98861588490597 39.66717761460095 0 0 0
263 88 2 -0.35 3.0214287723059345 92.72975885437471 38.53643829517867 0 0 0
264 88 2 -0.35 3.0121273193088576 93.24747291543723 40.797916934023235 0 0 0
265 89 1 0.7 41.254168598099696 43.81162826149335 82.0361909186636 0 0 0
266 89 2 -0.35 40.47807393799429 44.30429308161972 81.32868936137506 0 0 0
267 89 2 -0.35 42.0302632582051 43.318963441366975 82.74369247595216 0 0 0
268 90 1 0.7 27.26076997921838 56.761040723305676 57.81143659856703 0 0 0
269 90 2 -0.35 28.014907853459004 55.98528602221222 58.229863068053895 0 0 0
270 90 2 -0.35 26.506632104977758 57.53679542439913 57.39301012908016 0 0 0
271 91 1 0.7 71.81491211606884 18.22793476899524 71.8996625029946 0 0 0
272 91 2 -0.35 70.80889412245259 18.02944238619576 71.35732628763469 0 0 0
273 91 2 -0.35 72.8209301096851 18.42642715179472 72.44199871835451 0 0 0
274 92 1 0.7 77.62768783030458 63.54936392910283 14.159556431304459 0 0 0
275 92 2 -0.35 76.74170813910253 63.256866519160646 14.848820714402478 0 0 0
276 92 2 -0.35 78.51366752150663 63.84186133904502 13.47029214820644 0 0 0
277 93 1 0.7 49.664940934006566 73.66227784830251 91.90379642038782 0 0 0
278 93 2 -0.35 48.505944911447706 73.61508953241339 91.91387027448077 0 0 0
279 93 2 -0.35 50.823936956565426 73.70946616419162 91.89372256629487 0 0 0
280 94 1 0.7 77.10643745824063 17.89436065028159 30.519449282679453 0 0 0
281 94 2 -0.35 77.19589251651279 17.23206340254727 31.467584372312288 0 0 0
282 94 2 -0.35 77.01698239996848 18.556657898015914 29.571314193046618 0 0 0
283 95 1 0.7 15.38409399352227 50.46774912880163 21.459607769017857 0 0 0
284 95 2 -0.35 14.233202223705945 50.32905534397337 21.50217733818477 0 0 0
285 95 2 -0.35 16.534985763338597 50.606442913629884 21.417038199850946 0 0 0
286 96 1 0.7 101.62777388311353 22.99565348913691 87.94819192399653 0 0 0
287 96 2 -0.35 101.00959310288181 23.330779408135104 88.87076611687628 0 0 0
288 96 2 -0.35 102.24595466334526 22.660527570138715 87.02561773111678 0 0 0
289 97 1 0.7 60.26166660956185 92.83070690596043 10.690968477023285 0 0 0
290 97 2 -0.35 60.253668961071334 93.29217459235281 9.626739360698103 0 0 0
291 97 2 -0.35 60.269664258052366 92.36923921956804 11.755197593348466 0 0 0
292 98 1 0.7 28.10719333035275 2.5983032386742084 94.68253239741667 0 0 0
293 98 2 -0.35 27.815742922293765 2.014546298396805 95.64163848869136 0 0 0
294 98 2 -0.35 28.398643738411735 3.1820601789516116 93.72342630614197 0 0 0
295 99 1 0.7 54.322003381942395 14.910840305923875 76.4930216625766 0 0 0
296 99 2 -0.35 53.22470176436418 14.635188505211437 76.23700360691602 0 0 0
297 99 2 -0.35 55.41930499952061 15.186492106636313 76.74903971823717 0 0 0
298 100 1 0.7 103.21508292491319 30.89871901594974 89.77050106728939 0 0 0
299 100 2 -0.35 102.947492405232 32.01559253684854 89.607440182673 0 0 0
300 100 2 -0.35 103.48267344459438 29.781845495050945 89.93356195190577 0 0 0
301 101 1 0.7 27.81143793268662 71.83733466399708 80.08369779916653 0 0 0
302 101 2 -0.35 26.9403018295942 71.74196669115325 79.32368014171072 0 0 0
303 101 2 -0.35 28.682574035779037 71.93270263684092 80.84371545662233 0 0 0
304 102 1 0.7 76.70891059176479 56.66031579098679 44.92749911496765 0 0 0
305 102 2 -0.35 77.80423102259167 57.042164816963066 44.9194694715004 0 0 0
306 102 2 -0.35 75.61359016093792 56.27846676501052 44.935528758434906 0 0 0
307 103 1 0.7 41.47762526128331 19.447766388509315 98.6096916760363 0 0 0
308 103 2 -0.35 40.45152208192006 18.908087868615937 98.57149009928443 0 0 0
309 103 2 -0.35 42.503728440646555 19.987444908402693 98.64789325278818 0 0 0
310 104 1 0.7 13.087999142281712 100.00158432871177 96.62781265872894 0 0 0
311 104 2 -0.35 11.928404284228119 100.02342444414793 96.6063004637363 0 0 0
312 104 2 -0.35 14.247594000335305 99.97974421327561 96.64932485372158 0 0 0
313 105 1 0.7 93.64735525736927 86.09981060544952 74.51684578997867 0 0 0
314 105 2 -0.35 92.76741205793803 86.74586935695226 74.12453461835412 0 0 0
315 105 2 -0.35 94.52729845680051 85.45375185394678 74.90915696160323 0 0 0
316 106 1 0.7 69.62719217158258 104.21882778835428 100.83863887043606 0 0 0
317 106 2 -0.35 68.49716309811674 104.14025397016756 100.58871798651978 0 0 0
318 106 2 -0.35 70.75722124504841 104.29740160654099 101.08855975435233 0 0 0
319 107 1 0.7 95.00349541893391 93.74750602233574 89.33371739663824 0 0 0
320 107 2 -0.35 95.70248793211103 92.83002798203584 89.45718201541546 0 0 0
321 107 2 -0.35 94.30450290575679 94.66498406263564 89.21025277786102 0 0 0
322 108 1 0.7 36.78828529864004 60.711014243173885 85.01638502348978 0 0 0
323 108 2 -0.35 37.93933810317087 60.75534082582524 85.15317901185242 0 0 0
324 108 2 -0.35 35.63723249410921 60.66668766052253 84.87959103512713 0 0 0
325 109 1 0.7 30.38308979262742 33.590144689004006 69.56178809030065 0 0 0
326 109 2 -0.35 29.23518213201062 33.69134215510196 69.4288705385905 0 0 0
327 109 2 -0.35 31.53099745324422 33.488947222906056 69.6947056420108 0 0 0
328 110 1 0.7 54.97243368298394 26.692909911131913 67.73687639401149 0 0 0
329 110 2 -0.35 55.7436764605566 27.458126311228355 68.14335940603715 0 0 0
330 110 2 -0.35 54.20119090541128 25.92769351103547 67.33039338198583 0 0 0
331 111 1 0.7 43.681554151084995 100.88061728555738 65.53471836286352 0 0 0
332 111 2 -0.35 42.84270238429473 101.17337534748629 66.28052023369013 0 0 0
333 111 2 -0.35 44.52040591787526 100.58785922362847 64.7889164920369 0 0 0
334 112 1 0.7 97.01152464701399 32.694742364201105 35.53491512804055 0 0 0
335 112 2 -0.35 96.1362943874971 31.979921919836773 35.796838256352615 0 0 0
336 112 2 -0.35 97.88675490653087 33.40956280856543 35.27299199972849 0 0 0
337 113 1 0.7 100.31855697758428 68.98712225909676 56.5638086393307 0 0 0
338 113 2 -0.35 99.32640580663879 69.56388417355195 56.7328700128773 0 0 0
339 113 2 -0.35 101.31070814852977 68.41036034464157 56.394747265784105 0 0 0
340 114 1 0.7 102.93180123108057 99.78329077120092 102.76799157390744 0 0 0
341 114 2 -0.35 101.84914366176005 99.52092149520078 102.4445492288069 0 0 0
342 114 2 -0.35 104.01445880040109 100.04566004720107 103.09143391900797 0 0 0
343 115 1 0.7 76.63438266219309 64.06940347937375 39.46427783438204 0 0 0
344 115 2 -0.35 77.54800754321222 64.20374992529976 38.76225175990203 0 0 0
345 115 2 -0.35 75.72075778117396 63.93505703344774 40.16630390886205 0 0 0
346 116 1 0.7 96.11756245890518 22.87224681948882 8.852295148583266 0 0 0
347 116 2 -0.35 96.34664172141365 21.7972144737203 8.481582123400692 0 0 0
348 116 2 -0.35 95.88848319639672 23.94727916525734 9.223008173765841 0 0 0
349 117 1 0.7 100.52456223895986 66.31755019832288 24.0661832127097 0 0 0
350 117 2 -0.35 100.71508620110272 66.20586803322679 22.927399776823474 0 0 0
351 117 2 -0.35 100.334038276817 66.42923236341896 25.204966648595924 0 0 0
352 118 1 0.7 20.341256011902008 100.489792037052 6.934766733057223 0 0 0
353 118 2 -0.35 19.1866641750007 100.56258443630942 7.019731177216042 0 0 0
354 118 2 -0.35 21.495847848803315 100.41699963779458 6.849802288898403 0 0 0
355 119 1 0.7 2.6244824927414223 9.677255505079987 0.6332738793610008 0 0 0
356 119 2 -0.35 3.6215782165285417 10.103871802177897 1.044854555117173 0 0 0
357 119 2 -0.35 1.627386768954303 9.250639207982077 0.22169320360482847 0 0 0
358 120 1 0.7 38.434090420340226 1.7576946582448179 36.574121120653174 0 0 0
359 120 2 -0.35 37.78203703463595 0.8732727479733574 36.94590636353321 0 0 0
360 120 2 -0.35 39.086143806044504 2.642116568516278 36.20233587777314 0 0 0
361 121 1 0.7 31.253674817855316 70.51266369433732 76.33871072732784 0 0 0
362 121 2 -0.35 30.208335394283463 70.03188041792782 76.48606380890885 0 0 0
363 121 2 -0.35 32.299014241427166 70.99344697074682 76.19135764574682 0 0 0
364 122 1 0.7 29.711194198909773 81.04090107653332 99.42439329550805 0 0 0
365 122 2 -0.35 28.758050894882224 80.45065886552857 99.126514168452 0 0 0
366 122 2 -0.35 30.66433750293732 81.63114328753807 99.7222724225641 0 0 0
367 123 1 0.7 55.77811760398472 22.822570171124568 13.936866090603575 0 0 0
368 123 2 -0.35 55.76912572830891 23.356951718694106 12.90732468405937 0 0 0
369 123 2 -0.35 55.78710947966053 22.28818862355503 14.96640749714778 0 0 0
370 124 1 0.7 86.90838477430324 14.222901714603836 64.30911734668031 0 0 0
371 124 2 -0.35 85.75630724632728 14.32004162048224 64.40335750913101 0 0 0
372 124 2 -0.35 88.0604623022792 14.125761808725432 64.21487718422961 0 0 0
373 125 1 0.7 78.33524565600568 90.47374048758007 87.15637475818227 0 0 0
374 125 2 -0.35 77.45627615916746 90.85343298451019 86.50151123697886 0 0 0
375 125 2 -0.35 79.2142151528439 90.09404799064995 87.81123827938568 0 0 0
376 126 1 0.7 87.19056076937848 31.754850943924325 93.77981453611507 0 0 0
377 126 2 -0.35 86.54642813243744 30.85929490500062 94.13852406648004 0 0 0
378 126 2 -0.35 87.83469340631952 32.650406982848025 93.42110500575009 0 0 0
379 127 1 0.7 2.3429084859522566 2.2629233995745532 22.953576649517558 0 0 0
380 127 2 -0.35 1.9924463556211123 3.212707180930791 23.519869033252675 0 0 0
381 127 2 -0.35 2.693370616283401 1.3131396182183153 22.38728426578244 0 0 0
382 128 1 0.7 10.762748441548435 79.5130571045508 40.95075618519949 0 0 0
383 128 2 -0.35 9.854309647932014 78.98904171558651 40.455027599800836 0 0 0
384 128 2 -0.35 11.671187235164856 80.03707249351508 41.44648477059814 0 0 0
385 129 1 0.7 89.3592046477642 45.15251497279504 43.31914776625072 0 0 0
386 129 2 -0.35 88.29870068780735 45.617321555968466 43.38904906205041 0 0 0
387 129 2 -0.35 90.41970860772105 44.68770838962161 43.249246470451034 0 0 0
388 130 1 0.7 99.91650737585337 31.73946596763072 45.2045179694912 0 0 0
389 130 2 -0.35 98.84666804836264 31.51327049270039 44.81737533366402 0 0 0
390 130 2 -0.35 100.9863467033441 31.965661442561053 45.59166060531838 0 0 0
391 131 1 0.7 77.33351323862257 54.357001529707105 78.12470978737096 0 0 0
392 131 2 -0.35 76.60348561340498 53.567647230572035 78.5601170184273 0 0 0
393 131 2 -0.35 78.06354086384016 55.146355828842175 77.68930255631462 0 0 0
394 132 1 0.7 16.997396343852113 75.24035112245024 49.5813150213013 0 0 0
395 132 2 -0.35 16.70189130504131 75.94198877007992 50.45651864530323 0 0 0