LAMMPS data file via write_data, version 29 Aug 2024, timestep = 4000000, units = real

1500 atoms
2 atom types
1000 bonds
1 bond types
500 angles
1 angle types

0 105 xlo xhi
0 105 ylo yhi
0 105 zlo zhi

Masses

1 12.0107
2 15.9994

PairIJ Coeffs # lj/cut/coul/long/gpu

1 1 0.053649 2.8 12
1 2 0.0917684 2.925 12
2 2 0.156973 3.05 12

Bond Coeffs # harmonic

1 0 1.16

Angle Coeffs # harmonic

1 0 180

Atoms # full

62 21 2 -0.35 3.564701851118815 8.02985755667257 24.167717790775285 6 3 0
61 21 1 0.7 2.6257212090986934 7.384505038809559 23.94992090925465 6 3 0
63 21 2 -0.35 1.686740567078572 6.73915252094655 23.732124027734017 6 3 0
206 69 2 -0.35 15.534345934969444 5.619360295313825 23.255692647846537 0 -5 0
205 69 1 0.7 14.95873905377293 4.730856318350949 22.78152242394 0 -5 0
207 69 2 -0.35 14.383132172576417 3.8423523413880734 22.30735220003346 0 -5 0
245 82 2 -0.35 19.829033165442848 4.010177014397296 15.626622301086169 0 2 -1
244 82 1 0.7 20.972655352445592 4.13946955420884 15.481668058160702 0 2 -1
246 82 2 -0.35 22.116277539448337 4.268762094020383 15.336713815235235 0 2 -1
1201 401 1 0.7 25.95469628254802 3.4753084906985183 17.346866845588195 4 -6 2
1147 383 1 0.7 0.6977962416638708 20.199102839890198 20.484057890690377 2 2 -1
1149 383 2 -0.35 0.11085011452887472 19.23153839127355 20.73883874086564 2 2 -1
1148 383 2 -0.35 1.2847423687988668 21.166667288506847 20.229277040515118 2 2 -1
1117 373 1 0.7 0.5408717696227457 2.840943227509768 23.45421960069549 0 -3 -7
1119 373 2 -0.35 1.1054047086933059 3.6674747062623063 22.867919101518364 0 -3 -7
1202 401 2 -0.35 24.93625781831773 3.49683085573558 16.791961554226283 4 -6 2
1118 373 2 -0.35 104.97633883055218 2.0144117487572295 24.040520099872616 -1 -3 -7
1203 401 2 -0.35 26.973134746778314 3.4537861256614564 17.901772136950107 4 -6 2
1256 419 2 -0.35 27.52922391464731 23.197541325440483 20.86709384044275 -5 -2 -2
1257 419 2 -0.35 28.50522493469959 22.314530967652782 18.95656650044003 -5 -2 -2
122 41 2 -0.35 30.903814769512753 15.053645993027729 23.24805100644749 0 3 3
121 41 1 0.7 30.58386917411214 13.971028818361464 23.514837192564446 0 3 3
123 41 2 -0.35 30.26392357871153 12.8884116436952 23.781623378681406 0 3 3
1252 418 1 0.7 28.7372564632732 2.2277243940919407 14.46533958256313 -3 0 4
1254 418 2 -0.35 28.28885150998742 2.9144396322635253 15.285678036818869 -3 0 4
269 90 2 -0.35 32.68071509064427 22.57874809074371 24.205569670795867 4 0 5
1290 430 2 -0.35 30.668002528564994 19.96338881712999 16.941843283017025 4 0 -4
268 90 1 0.7 32.517807267025916 23.12143192835464 23.19336648299215 4 0 5
270 90 2 -0.35 32.35489944340756 23.66411576596557 22.181163295188437 4 0 5
1288 430 1 0.7 30.313442782217813 20.815858377942813 16.239573367558194 4 0 -4
1289 430 2 -0.35 29.95888303587063 21.66832793875564 15.537303452099355 4 0 -4
1255 419 1 0.7 28.01722442467345 22.756036146546634 19.911830170441387 -5 -2 -2
813 271 2 -0.35 32.143458669416376 7.506544148675348 26.1359577617262 1 5 2
811 271 1 0.7 33.24032557188901 7.659545458582794 26.48102818559246 1 5 2
1221 407 2 -0.35 28.121185376366498 3.9992601979710254 25.930324087875928 -4 -3 -1
812 271 2 -0.35 34.33719247436164 7.812546768490238 26.826098609458718 1 5 2
72 24 2 -0.35 32.177237379072515 3.269018983825873 23.272535990558467 -3 -2 -2
71 24 2 -0.35 30.003297330412938 3.979213666524407 23.66241825162319 -3 -2 -2
70 24 1 0.7 31.090267354742725 3.62411632517514 23.467477121090827 -3 -2 -2
1048 350 1 0.7 36.41862962562979 10.085464143407242 13.876836475789068 3 -1 2
1049 350 2 -0.35 37.099948612573584 10.986150774342763 14.141728965079306 3 -1 2
1036 346 1 0.7 44.39253023639155 10.126654010609993 2.4074332760642414 3 1 -1
1050 350 2 -0.35 35.737310638686 9.18477751247172 13.61194398649883 3 -1 2
1038 346 2 -0.35 44.21923594970156 11.045485063883369 1.7209068120862887 3 1 -1
1219 407 1 0.7 28.799096584723227 4.545347688040013 26.697021451100024 -4 -3 -1
1090 364 1 0.7 47.88645577199409 15.279380942081584 20.443259885642664 4 -6 -8
1092 364 2 -0.35 47.23258807014493 15.653169227857592 19.561024460206337 4 -6 -8
1037 346 2 -0.35 44.56582452308153 9.207822957336619 3.0939597400421945 3 1 -1
1091 364 2 -0.35 48.54032347384326 14.905592656305577 21.325495311078996 4 -6 -8
255 85 2 -0.35 50.469354238911805 11.802549372160907 15.780826351733877 0 -1 4
253 85 1 0.7 50.18246323287925 12.414611906443113 14.838131806939247 0 -1 4
254 85 2 -0.35 49.895572226846696 13.02667444072532 13.895437262144616 0 -1 4
35 12 2 -0.35 42.64303273371948 22.100768439420893 0.8924199785561013 -6 -1 6
1253 418 2 -0.35 29.185661416558986 1.5410091559203565 13.645001128307392 -3 0 4
1220 407 2 -0.35 29.477007793079952 5.091435178109001 27.463718814324118 -4 -3 -1
34 12 1 0.7 41.76100622320493 21.968663204319068 0.15068050838605068 -6 -1 6
11 4 2 -0.35 53.96151830621028 18.57798416188547 3.134582479804768 3 3 4
10 4 1 0.7 53.22257703222625 18.764972751693996 4.008997175977178 3 3 4
12 4 2 -0.35 52.48363575824222 18.95196134150252 4.883411872149587 3 3 4
995 332 2 -0.35 64.15258501001888 14.91117710572995 26.78545223659721 -2 2 2
996 332 2 -0.35 64.56573930501537 16.804330580286642 25.50964917565654 -2 2 2
994 332 1 0.7 64.35916215751713 15.857753843008297 26.147550706126875 -2 2 2
1326 442 2 -0.35 57.34831052201916 6.341368694494949 4.978744631206213 -1 2 -4
1324 442 1 0.7 57.76578430748127 6.644245220910272 3.939715542008721 -1 2 -4
1325 442 2 -0.35 58.183258092943376 6.947121747325594 2.900686452811229 -1 2 -4
83 28 2 -0.35 65.38789011762931 8.428590502775142 10.878933632287552 -1 3 -2
82 28 1 0.7 65.87376436964871 7.559123582896962 11.47353727040366 -1 3 -2
84 28 2 -0.35 66.35963862166811 6.689656663018782 12.06814090851977 -1 3 -2
851 284 2 -0.35 67.83771931303117 11.129937202017446 11.13907919684106 -2 5 2
850 284 1 0.7 68.27852435829429 11.921579214459975 10.414790693408031 -2 5 2
852 284 2 -0.35 68.71932940355741 12.713221226902503 9.690502189975003 -2 5 2
973 325 1 0.7 75.49439767114542 7.221955373507517 1.9888211800004705 2 5 -3
422 141 2 -0.35 72.49300316079189 13.621919737837265 13.236942681727479 4 1 2
697 233 1 0.7 65.512145184665 18.917255932420836 20.871390146738346 3 -3 -4
698 233 2 -0.35 64.38428656273221 18.65696182468188 20.947428994752936 3 -3 -4
421 141 1 0.7 71.51244803215044 13.720554369230591 13.848811008398544 4 1 2
699 233 2 -0.35 66.64000380659779 19.177550040159794 20.79535129872375 3 -3 -4
423 141 2 -0.35 70.531892903509 13.819189000623917 14.460679335069608 4 1 2
974 325 2 -0.35 74.4664870786827 7.142921696448818 2.520566882187451 2 5 -3
975 325 2 -0.35 76.52230826360814 7.3009890505662165 1.4570754778134898 2 5 -3
33 11 2 -0.35 78.09973581077203 23.167743835103096 12.999564386181444 -4 -1 0
1320 440 2 -0.35 90.7520131797404 17.23895983063269 20.502306764391598 -3 0 -1
1318 440 1 0.7 91.22429016588202 17.74195983114683 21.434800972332642 -3 0 -1
1319 440 2 -0.35 91.69656715202363 18.244959831660967 22.367295180273683 -3 0 -1
381 127 2 -0.35 99.8926760733801 15.604180465214691 0.634158247012703 -1 -3 -3
379 127 1 0.7 99.06674547917038 16.41118375454976 0.7445409655505975 -1 -3 -3
380 127 2 -0.35 98.24081488496066 17.218187043884832 0.8549236840884921 -1 -3 -3
23 8 2 -0.35 93.99165288187066 22.76011946020452 10.15532489673749 2 -3 -4
22 8 1 0.7 94.27175492874015 23.375494408641227 11.097904610170653 2 -3 -4
260 87 2 -0.35 86.85517172253729 12.64480459310695 17.690348482448563 -4 2 5
259 87 1 0.7 87.91673228149938 12.963233233010037 18.032828235055277 -4 2 5
261 87 2 -0.35 88.97829284046146 13.281661872913123 18.37530798766199 -4 2 5
24 8 2 -0.35 94.55185697560964 23.990869357077933 12.040484323603817 2 -3 -4
1164 388 2 -0.35 97.68595884936325 16.389832546825026 11.058321592611827 -5 0 6
1162 388 1 0.7 97.74118851016445 16.012756355961095 12.153932486519901 -5 0 6
1014 338 2 -0.35 104.06345032783382 4.79949111718742 14.328942126083483 5 6 -2
1012 338 1 0.7 104.56712547125889 5.784704757586934 13.980710259841056 5 6 -2
1163 388 2 -0.35 97.79641817096565 15.635680165097165 13.249543380427973 -5 0 6
1013 338 2 -0.35 0.07080061468395848 6.769918397986448 13.63247839359863 6 6 -2
792 264 2 -0.35 83.13841269701153 2.7570063867218915 18.56990178398067 0 2 6
791 264 2 -0.35 81.66140607720148 1.538144509743975 17.26023496761754 0 2 6
790 264 1 0.7 82.3999093871065 2.1475754482329332 17.915068375799102 0 2 6
31 11 1 0.7 79.08526338454686 23.755785306564487 12.83061874648848 -4 -1 0
32 11 2 -0.35 80.0707909583217 24.343826778025882 12.661673106795513 -4 -1 0
1031 344 2 -0.35 3.5740164445656144 33.44363125768334 4.77785302341616 0 -3 0
1032 344 2 -0.35 4.320282283106166 35.473313172256326 5.6180188545858964 0 -3 0
240 80 2 -0.35 23.283627106237635 27.875371807684225 21.43378650812037 -3 0 2
1030 344 1 0.7 3.94714936383589 34.45847221496984 5.197935939001028 0 -3 0
198 66 2 -0.35 4.663986083583882 43.60670248185761 23.92492459306573 2 -10 9
196 66 1 0.7 5.0485296669266 44.64489320421722 24.27117054107777 2 -10 9
420 140 2 -0.35 12.746412209617416 46.0890509080273 13.508304059035572 5 5 -8
197 66 2 -0.35 5.433073250269318 45.683083926576835 24.617416489089806 2 -10 9
418 140 1 0.7 12.89980235682471 45.00056284319624 13.878797237731245 5 5 -8
419 140 2 -0.35 13.053192504032003 43.91207477836518 14.249290416426918 5 5 -8
801 267 2 -0.35 9.90555996748508 34.607769084737605 8.00365869352458 1 -2 -3
799 267 1 0.7 10.359123569513192 33.5463884152166 8.119205797684709 1 -2 -3
800 267 2 -0.35 10.812687171541306 32.48500774569558 8.234752901844839 1 -2 -3
1340 447 2 -0.35 9.144372704178304 42.70427982540384 26.30102550377318 4 4 0
1339 447 1 0.7 10.013386765444901 43.46907925785149 26.226887865224672 4 4 0
1341 447 2 -0.35 10.882400826711493 44.23387869029914 26.15275022667617 4 4 0
778 260 1 0.7 23.454404818288424 40.766878389666225 7.562243463517682 7 -2 3
780 260 2 -0.35 24.459911977642527 41.342605226316664 7.5066200687326186 7 -2 3
1243 415 1 0.7 8.798211661805318 42.733230465316545 22.4952598304502 4 -3 -1
1244 415 2 -0.35 9.14802733243137 41.65047482944342 22.269717751073383 4 -3 -1
1401 467 2 -0.35 9.63614811570438 32.850038245858826 20.055282795098474 -3 2 3
1245 415 2 -0.35 8.448395991179265 43.81598610118968 22.72080190982701 4 -3 -1
174 58 2 -0.35 13.55394281648632 52.03560488912221 12.888954327829365 -3 -4 -1
238 80 1 0.7 22.77304464745118 27.757003326321538 20.398946203822632 -3 0 2
779 260 2 -0.35 22.448897658934325 40.19115155301578 7.617866858302745 7 -2 3
1400 467 2 -0.35 7.361853590326161 32.834267542023355 20.513251895301686 -3 2 3
1399 467 1 0.7 8.499000853015271 32.84215289394109 20.284267345200078 -3 2 3
239 80 2 -0.35 22.262462188664728 27.638634844958847 19.364105899524898 -3 0 2
172 58 1 0.7 13.580832796778125 51.479841997848624 13.90679740887956 -3 -4 -1
173 58 2 -0.35 13.607722777069931 50.92407910657503 14.924640489929756 -3 -4 -1
578 193 2 -0.35 26.482019526276538 33.63558790727531 25.621933126940743 3 0 -1
577 193 1 0.7 25.583194204970344 32.94446652611913 25.376852980280866 3 0 -1
983 328 2 -0.35 26.208517620505383 29.209910074341224 24.6350540950045 -2 0 0
982 328 1 0.7 25.25219187169381 28.55376538479342 24.657752300641295 -2 0 0
39 13 2 -0.35 1.6728349600872892 38.624971089804234 9.428052067546417 6 -1 4
984 328 2 -0.35 24.295866122882238 27.897620695245617 24.680450506278092 -2 0 0
579 193 2 -0.35 24.68436888366415 32.25334514496295 25.131772833620992 3 0 -1
771 257 2 -0.35 17.534230236320557 39.219927459858596 25.34814487085353 -1 -2 -7
93 31 2 -0.35 28.37139472309155 45.32736086430707 20.687356816828398 2 4 -2
91 31 1 0.7 27.476867684927917 45.04791751931371 20.00373938365951 2 4 -2
92 31 2 -0.35 26.582340646764287 44.768474174320346 19.32012195049062 2 4 -2
377 126 2 -0.35 43.95853999951265 38.422073747843626 15.28238854521479 -3 5 5
376 126 1 0.7 43.51319850755353 39.17191634283659 16.04724607330236 -3 5 5
378 126 2 -0.35 43.06785701559441 39.921758937829544 16.81210360138993 -3 5 5
1273 425 1 0.7 45.40703535879267 43.54831372659859 15.231193182235753 5 2 5
1274 425 2 -0.35 44.6536587535685 42.66753688358152 15.183697461290066 5 2 5
804 268 2 -0.35 52.4037993227323 45.71682166724328 3.9655314053095427 2 2 -7
1275 425 2 -0.35 46.16041196401684 44.429090569615674 15.278688903181441 5 2 5
755 252 2 -0.35 46.30344846421536 44.134858757332836 8.125208068428247 1 -2 8
754 252 1 0.7 46.728132365824045 43.49796655294132 8.996765240219892 1 -2 8
756 252 2 -0.35 47.15281626743273 42.8610743485498 9.868322412011535 1 -2 8
802 268 1 0.7 53.51446417834563 45.8941438033869 4.249398343396866 2 2 -7
803 268 2 -0.35 54.625129033958956 46.071465939530526 4.533265281484189 2 2 -7
183 61 2 -0.35 73.14762519872262 34.10978752431451 8.03347042697618 0 1 -1
181 61 1 0.7 73.05327231551168 33.269264827235915 7.239607007284197 0 1 -1
182 61 2 -0.35 72.95891943230073 32.42874213015732 6.445743587592214 0 1 -1
1173 391 2 -0.35 66.95002355307894 51.50086818656173 17.59228675714857 -1 -1 -3
1172 391 2 -0.35 68.94093664262165 52.44411067080013 18.319582216927085 -1 -1 -3
1171 391 1 0.7 67.9454800978503 51.97248942868093 17.95593448703783 -1 -1 -3
1381 461 1 0.7 60.033799639263954 38.77592371051709 7.098638654113208 1 5 -1
1383 461 2 -0.35 60.851849038047625 38.14492629111298 6.571156485830295 1 5 -1
1382 461 2 -0.35 59.21575024048028 39.406921129921194 7.626120822396122 1 5 -1
486 162 2 -0.35 84.37093339763666 37.266921001856254 13.622854780597088 6 3 0
484 162 1 0.7 83.86138521812927 37.76692965215893 12.70855067233503 6 3 0
485 162 2 -0.35 83.3518370386219 38.266938302461604 11.79424656407297 6 3 0
1161 387 2 -0.35 88.44825346823029 47.14143928511292 23.34419488216318 -1 -1 5
836 279 2 -0.35 87.35561351900681 41.13179295876654 15.034313999573865 -1 1 5
835 279 1 0.7 86.33642019937676 40.7875243126984 14.600350779290583 -1 1 5
837 279 2 -0.35 85.31722687974671 40.443255666630264 14.1663875590073 -1 1 5
1109 370 2 -0.35 96.78533840213086 29.555869176513056 18.440184169463326 4 0 4
1108 370 1 0.7 95.78512089683738 29.146393874837436 18.861485628543765 4 0 4
1110 370 2 -0.35 94.7849033915439 28.736918573161816 19.282787087624204 4 0 4
37 13 1 0.7 0.9923892739037288 38.74556094899151 8.496359117044491 6 -1 4
1159 387 1 0.7 88.50054246839343 47.32847892070725 22.20056817944146 -1 -1 5
38 13 2 -0.35 0.31194358772016817 38.86615080817879 7.564666166542565 6 -1 4
1160 387 2 -0.35 88.55283146855659 47.51551855630158 21.056941476719743 -1 -1 5
1166 389 2 -0.35 95.04271137826582 25.827051937153076 26.17029844928366 0 1 -2
17 6 2 -0.35 103.73678467535143 52.02382320227723 13.426612750615254 -4 8 1
1165 389 1 0.7 94.73850648966211 26.469871323119495 25.25386917062935 0 1 -2
16 6 1 0.7 104.3642232404268 52.07412407212423 14.400979555031148 -4 8 1
1167 389 2 -0.35 94.43430160105841 27.11269070908592 24.337439891975045 0 1 -2
1386 462 2 -0.35 8.504100916843829 55.078832291632104 14.511032602045866 -4 5 -6
692 231 2 -0.35 5.142558096443247 55.85797540500531 8.087428328218127 5 -2 1
693 231 2 -0.35 7.175050181568344 56.31454478255491 7.066193620922254 5 -2 1
691 231 1 0.7 6.158804139005795 56.08626009378011 7.576810974570191 5 -2 1
1385 462 2 -0.35 7.691275291900597 54.37954792344262 12.453676075858743 -4 5 -6
1384 462 1 0.7 8.097688104372212 54.72919010753736 13.482354338952305 -4 5 -6
1499 500 2 -0.35 2.000729989588643 67.589304529709 15.558792885634464 2 2 -2
1498 500 1 0.7 1.2022418608362346 68.2816998690138 15.080665912591115 2 2 -2
1500 500 2 -0.35 0.4037537320838266 68.9740952083186 14.602538939547767 2 2 -2
552 184 2 -0.35 4.753990254645713 66.53274117802648 13.565184353991445 0 -2 -3
550 184 1 0.7 4.753045216523674 67.40932731785469 14.324918416913395 0 -2 -3
1364 455 2 -0.35 12.106281372189454 59.03806205094567 25.517512815502517 3 -1 3
1363 455 1 0.7 12.919917601918842 59.31457669110704 26.296701970616823 3 -1 3
551 184 2 -0.35 4.752100178401642 68.2859134576829 15.084652479835347 0 -2 -3
1365 455 2 -0.35 13.73355383164823 59.591091331268416 27.07589112573113 3 -1 3
992 331 2 -0.35 8.455452229796657 54.28761666797314 9.198441099989207 -2 -6 4
991 331 1 0.7 9.539581880514843 54.5472324281285 8.877719168223377 -2 -6 4
993 331 2 -0.35 10.623711531233031 54.80684818828387 8.556997236457546 -2 -6 4
1335 445 2 -0.35 13.473454072898491 54.82116601190023 10.961997775911083 -3 5 3
1334 445 2 -0.35 15.308728721907668 53.53603261045941 10.35983575186859 -3 5 3
1333 445 1 0.7 14.39109139740308 54.17859931117982 10.660916763889837 -3 5 3
916 306 1 0.7 17.249302391793456 73.17013046058321 25.414083631345665 1 6 0
956 319 2 -0.35 17.10129414487732 67.90602208159486 22.565834290024757 2 4 -4
955 319 1 0.7 16.997725979179688 67.2030266193977 23.48271542473368 2 4 -4
918 306 2 -0.35 17.55388752601345 74.01708801317402 24.68231126228459 1 6 0
957 319 2 -0.35 16.894157813482057 66.50003115720055 24.399596559442607 2 4 -4
201 67 2 -0.35 2.041293032200178 57.21351266712219 3.8674716834422456 -5 -1 3
199 67 1 0.7 1.0476414246419106 57.80368252046092 3.9672515762353804 -5 -1 3
730 244 1 0.7 23.797848579631005 56.22049968264218 23.80330985122013 2 -6 6
200 67 2 -0.35 0.05398981708364281 58.393852373799646 4.067031469028516 -5 -1 3
732 244 2 -0.35 24.09821356300437 55.10333189074449 23.88884932461325 2 -6 6
731 244 2 -0.35 23.497483596257638 57.33766747453986 23.717770377827012 2 -6 6
470 157 2 -0.35 28.894167930479064 58.054579207368654 6.083435128382522 1 -2 4
605 202 2 -0.35 32.17512476220382 59.51376193623613 23.513580825677362 0 4 3
604 202 1 0.7 32.3110845376645 58.809691113055685 22.601769871915728 0 4 3
471 157 2 -0.35 27.017700211442303 57.706852241568996 7.402660225426042 1 -2 4
606 202 2 -0.35 32.447044313125176 58.10562028987524 21.689958918154094 0 4 3
469 157 1 0.7 27.955934070960684 57.88071572446883 6.743047676904283 1 -2 4
1296 432 2 -0.35 29.91869845892551 74.52366149132021 24.4790621788011 2 6 0
1294 432 1 0.7 30.493003141171428 75.52742420703657 24.388317798872315 2 6 0
1295 432 2 -0.35 31.067307823417348 76.53118692275292 24.297573418943532 2 6 0
1028 343 2 -0.35 40.96655600807213 67.69578560532379 6.670538286496053 5 -3 -1
1027 343 1 0.7 40.658605647691864 66.60718577662117 6.414185037077669 5 -3 -1
1029 343 2 -0.35 40.3506552873116 65.51858594791855 6.157831787659285 5 -3 -1
679 227 1 0.7 37.105232976491735 65.42256330265215 24.490710535457886 -4 1 4
681 227 2 -0.35 37.80169773045791 66.3473527499016 24.417900338795402 -4 1 4
1403 468 2 -0.35 49.14076937141557 73.21582579307946 5.946285805087859 3 -2 -4
1077 359 2 -0.35 46.59940258079757 55.45774049648113 13.865988708730269 7 0 4
1075 359 1 0.7 47.67117074417861 55.241259947341916 13.4786268936179 7 0 4
1402 468 1 0.7 49.730815828859356 73.17210645873647 4.9485214051114355 3 -2 -4
1076 359 2 -0.35 48.742938907559655 55.02477939820271 13.09126507850553 7 0 4
515 172 2 -0.35 46.788684316869144 65.75385505018978 14.92973675709989 -3 -1 -3
514 172 1 0.7 47.12681615159646 65.28603583046764 13.923549875848476 -3 -1 -3
680 227 2 -0.35 36.40876822252556 64.4977738554027 24.56352073212037 -4 1 4
152 51 2 -0.35 33.78904561690778 67.87548058376856 24.271099358962513 1 0 1
151 51 1 0.7 34.16209285370011 66.95206326681998 23.67634208251863 1 0 1
1404 468 2 -0.35 50.32086228630313 73.12838712439348 3.950757005135012 3 -2 -4
516 172 2 -0.35 47.46494798632377 64.8182166107455 12.917362994597061 -3 -1 -3
153 51 2 -0.35 34.53514009049244 66.0286459498714 23.081584806074744 1 0 1
588 196 2 -0.35 49.34865412643683 61.153681855851154 17.920343059409237 5 2 -1
41 14 2 -0.35 45.69515144745371 63.09049137359971 23.773938883925997 -3 -1 -1
586 196 1 0.7 49.74243649177425 60.79705728263918 16.88915230958021 5 2 -1
587 196 2 -0.35 50.13621885711167 60.4404327094272 15.857961559751182 5 2 -1
98 33 2 -0.35 51.60073082583588 59.101501045852714 12.409637929212032 -2 -10 -3
40 14 1 0.7 45.77766454076131 64.14476585417205 23.29718222792052 -3 -1 -1
42 14 2 -0.35 45.86017763406891 65.1990403347444 22.820425571915045 -3 -1 -1
97 33 1 0.7 51.69222759536325 58.00117665714634 12.765326811220996 -2 -10 -3
927 309 2 -0.35 55.062072581860114 68.47027345414966 15.532908897193858 -2 -2 -9
925 309 1 0.7 56.21243206904927 68.4921659991696 15.385281776693855 -2 -2 -9
926 309 2 -0.35 57.36279155623843 68.51405854418954 15.237654656193852 -2 -2 -9
549 183 2 -0.35 78.15755388752385 56.54027587869917 16.482908640739684 -5 1 -3
548 183 2 -0.35 76.00050103387139 56.691852373298936 17.323472471053712 -5 1 -3
547 183 1 0.7 77.07902746069762 56.61606412599905 16.903190555896696 -5 1 -3
1196 399 2 -0.35 52.182124111057696 59.141076479212174 17.229883832793696 -2 2 3
1197 399 2 -0.35 53.326550309481235 58.361761853260425 19.091430874942386 -2 2 3
1195 399 1 0.7 52.75433721026947 58.7514191662363 18.160657353868043 -2 2 3
99 33 2 -0.35 51.78372436489061 56.90085226843996 13.12101569322996 -2 -10 -3
623 208 2 -0.35 66.98391054950923 56.05521296039849 8.638753872011165 2 -1 -4
297 99 2 -0.35 65.65199799203751 77.2184169802474 12.730140649026653 2 1 3
295 99 1 0.7 65.7528485050458 76.84377968062574 11.636945301543266 2 1 3
296 99 2 -0.35 65.8536990180541 76.46914238100409 10.543749954059878 2 1 3
622 208 1 0.7 67.03259462335292 56.61200367871233 9.655225198194831 2 -1 -4
624 208 2 -0.35 67.08127869719662 57.168794397026154 10.671696524378497 2 -1 -4
65 22 2 -0.35 70.24371622752125 58.579145086356014 10.503889764131676 1 2 0
64 22 1 0.7 69.7267140297967 59.25383782156573 11.293255611254267 1 2 0
66 22 2 -0.35 69.20971183207214 59.92853055677545 12.082621458376858 1 2 0
678 226 2 -0.35 63.48446192497235 57.305574625292195 18.68947487726006 0 1 5
676 226 1 0.7 63.65630587673146 57.99964498961521 19.602894816616857 0 1 5
677 226 2 -0.35 63.82814982849057 58.69371535393823 20.516314755973653 0 1 5
1015 339 1 0.7 71.00841435448964 54.374166594429866 2.0822563794060023 0 -1 0
1017 339 2 -0.35 70.19836502395991 54.58477549015299 1.2790976309941509 0 -1 0
1016 339 2 -0.35 71.81846368501938 54.16355769870675 2.8854151278178537 0 -1 0
904 302 1 0.7 63.29641599699585 67.53516304540135 22.976833257854633 0 2 -4
905 302 2 -0.35 64.14136381621913 67.78367837282123 22.221913848364238 0 2 -4
906 302 2 -0.35 62.451468177772576 67.28664771798148 23.731752667345027 0 2 -4
403 135 1 0.7 58.125240452934165 62.12257184512249 3.520157029266799 -4 -2 1
405 135 2 -0.35 58.62302602628913 62.69022765687065 2.6394888724973073 -4 -2 1
404 135 2 -0.35 57.627454879579204 61.55491603337434 4.40082518603629 -4 -2 1
599 200 2 -0.35 102.22545095830722 58.039771602911564 7.104167963834682 -3 -2 0
598 200 1 0.7 101.20790244798391 58.01350076807588 7.660499584699826 -3 -2 0
600 200 2 -0.35 100.1903539376606 57.987229933240194 8.21683120556497 -3 -2 0
132 44 2 -0.35 99.58030178844655 54.140101629045716 10.596749002569936 -2 1 -4
130 44 1 0.7 100.64882836703711 54.18922708724053 11.045567050560532 -2 1 -4
131 44 2 -0.35 101.71735494562768 54.238352545435355 11.494385098551126 -2 1 -4
462 154 2 -0.35 99.62350657752398 72.52878070499249 104.87689134814934 -7 7 -1
18 6 2 -0.35 104.99166180550218 52.124424941971235 15.375346359447043 -4 8 1
460 154 1 0.7 100.01440937508573 71.44036395017702 104.96713529916985 -7 7 -1
461 154 2 -0.35 100.40531217264748 70.35194719536155 0.057379250190375014 -7 7 0
463 155 1 0.7 87.57351006343896 74.81866569412645 2.3450311826765637 -4 -1 -4
464 155 2 -0.35 87.7977498657606 74.2002738482093 3.300493393314726 -4 -1 -4
465 155 2 -0.35 87.34927026111734 75.4370575400436 1.389568972038401 -4 -1 -4
1059 353 2 -0.35 80.93559943839446 58.12108648108344 11.87086317672609 0 -5 0
1058 353 2 -0.35 82.47335503442034 59.63638551300173 12.720319809381408 0 -5 0
1057 353 1 0.7 81.7044772364074 58.87873599704258 12.295591493053749 0 -5 0
959 320 2 -0.35 81.78619881812547 73.70188594771729 17.90372673707651 0 9 6
958 320 1 0.7 80.90341530572809 73.04999054906305 18.279659788898584 0 9 6
960 320 2 -0.35 80.02063179333071 72.39809515040882 18.655592840720658 0 9 6
1359 453 2 -0.35 81.75700162773799 77.60332489560476 9.799928589426099 5 -5 8
945 315 2 -0.35 96.65554130279692 59.2761103313451 104.61306386345767 4 -3 -4
1357 453 1 0.7 81.60993480045308 78.75334627311652 9.837640385711719 5 -5 8
713 238 2 -0.35 18.492987478333728 80.5684849300376 2.9661286711235446 -2 1 2
233 78 2 -0.35 22.7708147339719 92.13138302939406 20.47062608043195 0 3 -1
232 78 1 0.7 23.786613762390456 91.79464316513479 20.918240420777423 0 3 -1
234 78 2 -0.35 24.802412790809015 91.45790330087551 21.3658547611229 0 3 -1
1284 428 2 -0.35 4.881602671205383 86.71699636060626 8.272224135772326 -3 -3 -3
1282 428 1 0.7 4.539526877754744 86.44582229990095 7.197492178334889 -3 -3 -3
1283 428 2 -0.35 4.197451084304105 86.17464823919565 6.122760220897451 -3 -3 -3
881 294 2 -0.35 24.230612941057537 94.50170800701204 2.9044961322749385 5 4 -2
880 294 1 0.7 23.765561759093764 95.29789754763762 3.6083495357268265 5 4 -2
882 294 2 -0.35 23.30051057712999 96.0940870882632 4.3122029391787144 5 4 -2
1242 414 2 -0.35 5.7017764345841755 101.46712172487541 6.103037919193087 3 -9 1
1240 414 1 0.7 6.643376510749634 101.12404428901795 6.687235804819646 3 -9 1
1241 414 2 -0.35 7.584976586915092 100.78096685316048 7.271433690446206 3 -9 1
714 238 2 -0.35 20.212333829801015 79.42592712439006 1.9074456286377484 -2 1 2
712 238 1 0.7 19.35266065406737 79.99720602721382 2.4367871498806464 -2 1 2
1005 335 2 -0.35 20.947176047926316 101.80184866409166 18.430857618128073 -3 -3 -2
1004 335 2 -0.35 21.174309584590038 100.69145216865579 16.406547864299885 -3 -3 -2
1003 335 1 0.7 21.060742816258177 101.24665041637373 17.418702741213977 -3 -3 -2
480 160 2 -0.35 42.52554455781168 99.2806412567929 10.715710733047143 3 -7 -2
948 316 2 -0.35 39.54180717305625 102.57434514953496 21.934237962324385 -2 2 9
479 160 2 -0.35 44.80486979974027 99.65091842928062 10.939253250355714 3 -7 -2
946 316 1 0.7 39.256154419275155 103.02886264382221 22.962545480356173 -2 2 9
478 160 1 0.7 43.66520717877597 99.46577984303677 10.827481991701427 3 -7 -2
879 293 2 -0.35 29.802018713246152 80.87952635340324 11.592919103531452 -3 -5 -4
877 293 1 0.7 30.68501307756913 81.3820651375416 11.033119386659239 -3 -5 -4
878 293 2 -0.35 31.56800744189211 81.88460392167997 10.473319669787026 -3 -5 -4
947 316 2 -0.35 38.97050166549407 103.48338013810944 23.99085299838796 -2 2 9
194 65 2 -0.35 39.49966668497505 98.0928652552514 9.218878033196143 0 2 -3
193 65 1 0.7 39.37810670233156 98.68170132615133 8.22686228118961 0 2 -3
195 65 2 -0.35 39.25654671968807 99.27053739705126 7.23484652918308 0 2 -3
221 74 2 -0.35 49.33268137935413 92.52340268412028 17.472427142804992 3 0 0
220 74 1 0.7 50.34470450148853 93.03748729107754 17.711438057103795 3 0 0
222 74 2 -0.35 51.35672762362292 93.5515718980348 17.950448971402597 3 0 0
366 122 2 -0.35 52.28130223043505 93.6279079244735 13.921801819310721 -2 0 3
1342 448 1 0.7 57.0305046198197 80.53394500486945 19.306818979204014 0 1 -2
1343 448 2 -0.35 56.48470114398998 81.4979797825967 19.650818271505564 0 1 -2
1344 448 2 -0.35 57.57630809564942 79.5699102271422 18.962819686902463 0 1 -2
1337 446 2 -0.35 63.59904916735965 91.5070012838257 16.076208711072518 -4 -3 -3
1336 446 1 0.7 62.65037324303705 91.69714310204175 16.716099388905203 -4 -3 -3
1338 446 2 -0.35 61.70169731871445 91.88728492025781 17.35599006673789 -4 -3 -3
511 171 1 0.7 62.184761439804745 94.56087802375774 23.852180103676158 5 -2 0
1188 396 2 -0.35 56.01074567075063 94.3100145462897 24.363463111774184 2 2 1
1186 396 1 0.7 57.06958968196782 94.08099250685248 23.948736376006718 2 2 1
1187 396 2 -0.35 58.128433693185016 93.85197046741527 23.534009640239248 2 2 1
809 270 2 -0.35 78.3359588590117 104.49475685592799 23.177774632567864 3 2 5
827 276 2 -0.35 71.06980548459715 103.84677538871672 11.093728667989042 3 4 2
810 270 2 -0.35 77.704494362616 102.36379565792407 22.512449928086465 3 2 5
808 270 1 0.7 78.02022661081385 103.42927625692603 22.845112280327164 3 2 5
826 276 1 0.7 71.82523741192146 103.49042434558159 11.89867372029611 3 4 2
828 276 2 -0.35 72.58066933924579 103.13407330244644 12.703618772603177 3 4 2
365 122 2 -0.35 53.692891680153075 95.45734842852565 13.714527441767359 -2 0 3
364 122 1 0.7 52.987096955294064 94.54262817649958 13.81816463053904 -2 0 3
762 254 2 -0.35 61.29649969745188 103.83258971072284 17.42219392974487 1 2 3
760 254 1 0.7 61.51670110078058 104.05829005359398 16.30587377083067 1 2 3
761 254 2 -0.35 61.73690250410929 104.28399039646513 15.189553611916468 1 2 3
508 170 1 0.7 66.27848300218056 96.2380515998417 13.068641950993605 0 2 4
510 170 2 -0.35 67.29664228576588 96.24892473564569 13.624369805403395 0 2 4
509 170 2 -0.35 65.26032371859526 96.22717846403769 12.512914096583817 0 2 4
513 171 2 -0.35 61.2399364731745 94.55242629776833 24.525109781101076 5 -2 0
512 171 2 -0.35 63.12958640643499 94.56932974974714 23.179250426251244 5 -2 0
1358 453 2 -0.35 81.46286797316816 79.90336765062828 9.875352181997338 5 -5 8
94 32 1 0.7 99.11872370069254 91.85596184763268 18.37614087234477 0 -3 1
95 32 2 -0.35 98.3239700980226 91.05548429108018 18.10558146574885 0 -3 1
96 32 2 -0.35 99.9134773033625 92.65643940418518 18.646700278940692 0 -3 1
476 159 2 -0.35 85.60225534817172 98.02606005983462 2.221348135987167 -4 4 3
475 159 1 0.7 86.06914033765432 98.80232975748055 1.4967629007580106 -4 4 3
477 159 2 -0.35 86.53602532713691 99.57859945512648 0.772177665528854 -4 4 3
177 59 2 -0.35 98.83412609750891 93.39050248547139 11.708993078589591 -4 -5 -3
175 59 1 0.7 98.19391191983397 92.7093126174425 12.395801764033344 -4 -5 -3
176 59 2 -0.35 97.55369774215902 92.02812274941363 13.082610449477096 -4 -5 -3
1490 497 2 -0.35 79.45821953937333 89.33183670052877 10.377042432627238 3 1 1
1491 497 2 -0.35 79.85771623952655 87.19023908569928 9.579319396276322 3 1 1
1489 497 1 0.7 79.65796788944994 88.26103789311402 9.97818091445178 3 1 1
629 210 2 -0.35 82.64755690273681 96.8114163290042 5.961961882472783 -4 1 -6
630 210 2 -0.35 82.95500084639284 96.2221064345483 3.739217616973864 -4 1 -6
628 210 1 0.7 82.80127887456483 96.51676138177625 4.850589749723324 -4 1 -6