LAMMPS (29 Aug 2024 - Update 1)
  using 1 OpenMP thread(s) per MPI task
package gpu 1 gpuID 0
# GCMC for CO2 molecular fluid, rigid/small/nvt dynamics
# Rigid CO2 TraPPE model
# [Potoff and J.I. Siepmann, Vapor-liquid equilibria of
# mixtures containing alkanes, carbon dioxide and
# nitrogen AIChE J., 47,1676-1682 (2001)].

# global model settings

units           real
atom_style      full
boundary        p p p
pair_style      lj/cut/coul/long  12
pair_modify     mix arithmetic shift yes
kspace_style    pppm 1.0e-4
bond_style      harmonic
angle_style     harmonic
neigh_modify    one 4000

# box, start molecules on simple cubic lattice
region          mbox block 0 ${lbox} 0 ${lbox} 0 ${lbox} units box
region          mbox block 0 105 0 ${lbox} 0 ${lbox} units box
region          mbox block 0 105 0 105 0 ${lbox} units box
region          mbox block 0 105 0 105 0 105 units box
create_box      2 mbox                                       bond/types 1                                angle/types 1                               extra/bond/per/atom 2                       extra/angle/per/atom 1                      extra/special/per/atom 2
Created orthogonal box = (0 0 0) to (105 105 105)
  1 by 1 by 1 MPI processor grid
molecule        co2mol ../CO2.txt
Read molecule template co2mol:
# CO2 molecule file. TraPPE model.
  1 molecules
  0 fragments
  3 atoms with max type 2
  2 bonds with max type 1
  1 angles with max type 1
  0 dihedrals with max type 0
  0 impropers with max type 0
create_atoms   	0 random ${nmols} 34578 mbox mol co2mol 464563 overlap 1.2
create_atoms   	0 random 500 34578 mbox mol co2mol 464563 overlap 1.2
Created 1500 atoms
  using lattice units in orthogonal box = (0 0 0) to (105 105 105)
  create_atoms CPU = 0.014 seconds

# rigid CO2 TraPPE model

pair_coeff      1   1  0.053649   2.800
pair_coeff      2   2  0.156973   3.050
bond_coeff      1       0       1.16
angle_coeff     1       0       180

# masses

mass 1 12.0107
mass 2 15.9994

write_data init_conf.data  pair ij
System init for write_data ...
PPPM initialization ...
  using 12-bit tables for long-range coulomb (src/kspace.cpp:342)
  G vector (1/distance) = 0.17164655
  grid = 24 24 24
  stencil order = 5
  estimated absolute RMS force accuracy = 0.034360813
  estimated relative force accuracy = 0.00010347657
  using double precision FFTW3
  3d grid and FFT values/proc = 24389 13824
Generated 1 of 1 mixed pair_coeff terms from arithmetic mixing rule

# MD settings

group           co2 type 1 2
1500 atoms in group co2
velocity       	all create 300 54654
timestep        0.25

# rigid constraints with thermostat
fix             myrigidnvt co2 rigid/nvt molecule temp 300 300 $(100*dt)
fix             myrigidnvt co2 rigid/nvt molecule temp 300 300 25
  500 rigid bodies with 1500 atoms

thermo 1000
thermo_style custom step temp density press ke pe etotal


variable    mvol equal vol
variable    mden equal density
variable	mtmp equal temp
variable    mpre equal press

fix mydat all ave/time 1 4000 4000 v_mtmp v_mden v_mpre file statistics.dat ## every 1ps

run 4000000 ## 1ns

CITE-CITE-CITE-CITE-CITE-CITE-CITE-CITE-CITE-CITE-CITE-CITE-CITE

Your simulation uses code contributions which should be cited:

- GPU package (short-range, long-range and three-body potentials): doi:10.1016/j.cpc.2010.12.021, doi:10.1016/j.cpc.2011.10.012, doi:10.1016/j.cpc.2013.08.002, doi:10.1016/j.commatsci.2014.10.068, doi:10.1016/j.cpc.2016.10.020, doi:10.3233/APC200086

@Article{Brown11,
 author = {W. M. Brown and P. Wang and S. J. Plimpton and A. N. Tharrington},
 title = {Implementing Molecular Dynamics on Hybrid High Performance Computers---Short Range Forces},
 journal = {Comput.\ Phys.\ Commun.},
 year =    2011,
 volume =  182,
 pages =   {898--911},
 doi =     {10.1016/j.cpc.2010.12.021}
}

@Article{Brown12,
 author = {W. M. Brown and A. Kohlmeyer and S. J. Plimpton and A. N. Tharrington},
 title = {Implementing Molecular Dynamics on Hybrid High Performance Computers - Particle-Particle Particle-Mesh},
 journal = {Comput.\ Phys.\ Commun.},
 year =    2012,
 volume =  183,
 doi =     {10.1016/j.cpc.2011.10.012},
 pages =   {449--459}
}

@Article{Brown13,
 author = {W. M. Brown and Y. Masako},
 title = {Implementing Molecular Dynamics on Hybrid High Performance Computers---Three-Body Potentials},
 journal = {Comput.\ Phys.\ Commun.},
 year =    2013,
 volume =  184,
 pages =   {2785--2793},
 doi =     {10.1016/j.cpc.2013.08.002},
}

@Article{Trung15,
 author = {T. D. Nguyen and S. J. Plimpton},
 title = {Accelerating Dissipative Particle Dynamics Simulations for Soft Matter Systems},
 journal = {Comput.\ Mater.\ Sci.},
 year =    2015,
 doi =     {10.1016/j.commatsci.2014.10.068},
 volume =  100,
 pages =   {173--180}
}

@Article{Trung17,
 author = {T. D. Nguyen},
 title = {{GPU}-Accelerated {T}ersoff Potentials for Massively Parallel
    Molecular Dynamics Simulations},
 journal = {Comput.\ Phys.\ Commun.},
 year =    2017,
 doi =     {10.1016/j.cpc.2016.10.020},
 volume =  212,
 pages =   {113--122}
}

@inproceedings{Nikolskiy19,
 author = {V. Nikolskiy and V. Stegailov},
 title = {{GPU} Acceleration of Four-Site Water Models in {LAMMPS}},
 booktitle = {Proceedings of the International Conference on Parallel
    Computing (ParCo 2019), Prague, Czech Republic},
 doi =     {10.3233/APC200086},
 year =    2019
}

CITE-CITE-CITE-CITE-CITE-CITE-CITE-CITE-CITE-CITE-CITE-CITE-CITE

PPPM initialization ...
  using 12-bit tables for long-range coulomb (src/kspace.cpp:342)
  G vector (1/distance) = 0.17164655
  grid = 24 24 24
  stencil order = 5
  estimated absolute RMS force accuracy = 0.034360813
  estimated relative force accuracy = 0.00010347657
  using double precision FFTW3
  3d grid and FFT values/proc = 24389 13824
Generated 1 of 1 mixed pair_coeff terms from arithmetic mixing rule
Per MPI rank memory allocation (min/avg/max) = 9.599 | 9.599 | 9.599 Mbytes
   Step          Temp         Density         Press          KinEng         PotEng         TotEng    
         0   305.66621      0.031564405   -1112.3774      758.3663       6867.6268      7625.9931    
      1000   314.09665      0.031564405    31.754268      779.28244     -38.160088      741.12235    
      2000   299.4065       0.031564405    15.377208      742.83577     -53.029391      689.80638    
      3000   308.87223      0.031564405    21.449026      766.32051     -59.881166      706.43934    
      4000   301.92255      0.031564405    16.440348      749.07817     -69.430087      679.64808    
      5000   312.12677      0.031564405    13.477032      774.39513     -75.744708      698.65042    
      6000   293.89976      0.031564405    18.048341      729.17339     -70.819462      658.35393    
      7000   290.42481      0.031564405    18.309967      720.55196     -74.085406      646.46655    
      8000   311.95352      0.031564405    14.860038      773.96528     -79.922689      694.04259    
      9000   292.46575      0.031564405    15.562881      725.61559     -89.981267      635.63433    
     10000   290.40626      0.031564405    19.644546      720.50593     -91.307974      629.19796    
     11000   305.58352      0.031564405    18.271662      758.16115     -99.737404      658.42374    
     12000   299.74763      0.031564405    19.906939      743.68214     -94.125218      649.55692    
     13000   290.01211      0.031564405    6.1858996      719.52805     -106.26577      613.26228    
     14000   292.69509      0.031564405    11.216355      726.18459     -104.18903      621.99556    
     15000   299.85749      0.031564405    12.269496      743.95471     -103.06284      640.89186    
     16000   312.6562       0.031564405    22.844298      775.70865     -110.16107      665.54759    
     17000   306.84687      0.031564405    12.513775      761.29554     -114.30278      646.99276    
     18000   292.90816      0.031564405    9.5257578      726.71322     -106.89754      619.81568    
     19000   300.04718      0.031564405    14.53736       744.42532     -113.45666      630.96866    
     20000   288.95332      0.031564405    18.411856      716.90114     -105.32978      611.57136    
     21000   300.59685      0.031564405    16.502137      745.78907     -116.77912      629.00995    
     22000   294.62491      0.031564405    19.336344      730.97253     -122.91785      608.05468    
     23000   306.58978      0.031564405    11.427498      760.6577      -123.41465      637.24305    
     24000   294.41475      0.031564405    13.88911       730.4511      -118.58849      611.86261    
     25000   308.39475      0.031564405    23.46063       765.13588     -124.09196      641.04392    
     26000   293.45966      0.031564405    18.295506      728.08149     -113.9213       614.16019    
     27000   299.86115      0.031564405    12.386475      743.96377     -119.98213      623.98165    
     28000   305.97497      0.031564405    16.657147      759.13234     -117.20971      641.92262    
     29000   294.29172      0.031564405    19.06433       730.14588     -116.09363      614.05225    
     30000   306.18867      0.031564405    14.394542      759.66254     -119.08852      640.57402    
     31000   293.35351      0.031564405    14.61086       727.81813     -117.80458      610.01356    
     32000   297.57854      0.031564405    14.676541      738.30055     -124.78687      613.51368    
     33000   307.6923       0.031564405    18.432799      763.39308     -124.65453      638.73855    
     34000   299.03845      0.031564405    14.463055      741.92264     -120.61686      621.30578    
     35000   302.36764      0.031564405    15.859041      750.18246     -120.48498      629.69748    
     36000   295.59142      0.031564405    15.759253      733.37047     -121.49597      611.8745     
     37000   280.18032      0.031564405    27.912403      695.13509     -123.21075      571.92434    
     38000   305.60013      0.031564405    16.449848      758.20235     -123.82544      634.37692    
     39000   310.92103      0.031564405    11.788725      771.40366     -118.25136      653.1523     
     40000   289.29219      0.031564405    16.486378      717.74189     -116.12646      601.61544    
     41000   298.80054      0.031564405   -6.5598602      741.33237     -123.53439      617.79798    
     42000   305.09455      0.031564405    6.4389871      756.94799     -119.26874      637.67925    
     43000   296.22925      0.031564405    33.157462      734.95293     -121.14464      613.80829    
     44000   292.76331      0.031564405    29.667009      726.35383     -120.65417      605.69966    
     45000   306.1847       0.031564405    13.118005      759.65267     -112.68737      646.9653     
     46000   296.52962      0.031564405    11.683768      735.69816     -112.69802      623.00014    
     47000   301.87565      0.031564405    8.6007857      748.9618      -106.72166      642.24013    
     48000   305.68435      0.031564405    19.746083      758.41131     -107.21876      651.19254    
     49000   299.24205      0.031564405    18.515207      742.42776     -107.7632       634.66456    
     50000   287.08577      0.031564405   -3.9297475      712.2677      -114.21175      598.05595    
     51000   311.92544      0.031564405    10.466808      773.89562     -120.26169      653.63393    
     52000   314.65045      0.031564405    22.549915      780.65644     -119.63191      661.02453    
     53000   301.56061      0.031564405    23.373221      748.18017     -119.69737      628.48281    
     54000   288.95868      0.031564405    15.633238      716.91444     -116.68673      600.22772    
     55000   297.94367      0.031564405    1.2641514      739.20646     -120.8579       618.34856    
     56000   316.47055      0.031564405    15.43091       785.17216     -118.14601      667.02615    
     57000   308.62892      0.031564405    17.523055      765.71685     -118.55679      647.16006    
     58000   292.69422      0.031564405    11.749486      726.18242     -119.14828      607.03413    
     59000   290.79094      0.031564405    20.651506      721.46035     -87.118603      634.34174    
     60000   317.19573      0.031564405    17.739165      786.97135     -122.19499      664.77636    
     61000   302.14742      0.031564405    24.017671      749.63609     -125.30981      624.32628    
     62000   286.03779      0.031564405    12.705461      709.66765     -122.32354      587.34411    
     63000   296.13547      0.031564405   -0.51717349     734.72027     -116.06325      618.65701    
     64000   304.78151      0.031564405    18.543793      756.17132     -120.55852      635.6128     
     65000   308.72445      0.031564405    14.313024      765.95388     -112.03573      653.91815    
     66000   314.24939      0.031564405    19.481887      779.66141     -111.79938      667.86204    
     67000   290.00716      0.031564405    34.218813      719.51576     -115.57338      603.94238    
     68000   288.85573      0.031564405    18.567894      716.65902     -121.12801      595.53102    
     69000   302.98183      0.031564405   -1.6692398      751.70626     -119.67611      632.03015    
     70000   303.29602      0.031564405    18.77453       752.48578     -118.17757      634.30821    
     71000   304.20532      0.031564405    18.731169      754.7418      -116.04073      638.70106    
     72000   291.6516       0.031564405    16.580953      723.59565     -116.00861      607.58704    
     73000   302.18215      0.031564405    7.8506105      749.72224     -117.41469      632.30755    
     74000   301.8849       0.031564405    26.221014      748.98477     -116.56833      632.41644    
     75000   298.77172      0.031564405    14.041964      741.26086     -109.36648      631.89438    
     76000   305.76763      0.031564405    11.73929       758.61791     -122.28831      636.32959    
     77000   314.34191      0.031564405    15.207265      779.89094     -118.99929      660.89165    
     78000   307.84378      0.031564405    18.1635        763.7689      -115.64747      648.12143    
     79000   299.54223      0.031564405    15.459895      743.17252     -117.30614      625.86638    
     80000   287.80322      0.031564405    15.059378      714.04773     -117.33088      596.71684    
     81000   298.08193      0.031564405    16.2147        739.5495      -118.73741      620.81208    
     82000   300.46661      0.031564405    12.259893      745.46594     -123.04054      622.4254     
     83000   304.35013      0.031564405    15.481823      755.10105     -123.51639      631.58466    
     84000   304.67932      0.031564405    14.131516      755.91778     -120.90556      635.01222    
     85000   287.98577      0.031564405    26.270206      714.50063     -118.62171      595.87892    
     86000   292.33698      0.031564405    11.070377      725.2961      -121.72431      603.57179    
     87000   315.35522      0.031564405    21.450046      782.40499     -108.6588       673.74619    
     88000   292.83661      0.031564405    18.487608      726.53571     -111.58225      614.95346    
     89000   290.65282      0.031564405    29.291693      721.11766     -108.62335      612.49431    
     90000   305.92627      0.031564405    15.897189      759.01152     -115.30377      643.70774    
     91000   292.67967      0.031564405    14.987074      726.14634     -107.79855      618.34779    
     92000   288.81494      0.031564405    18.272561      716.55783     -110.7873       605.77052    
     93000   303.60804      0.031564405    16.899781      753.25991     -110.27712      642.98279    
     94000   301.62229      0.031564405    11.309035      748.33321     -106.83729      641.49592    
     95000   297.73578      0.031564405    16.320125      738.69067     -102.30939      636.38128    
     96000   300.72673      0.031564405    23.10431       746.11131     -98.222057      647.88925    
     97000   304.4253       0.031564405    22.059788      755.28755     -102.3589       652.92865    
     98000   312.81844      0.031564405    17.737017      776.11117     -107.12084      668.99033    
     99000   304.85966      0.031564405    12.418348      756.36522     -108.32456      648.04066    
    100000   285.56767      0.031564405    15.313435      708.50127     -105.83157      602.6697     
    101000   294.16656      0.031564405    12.262578      729.83535     -104.45107      625.38427    
    102000   314.3896       0.031564405    16.883597      780.00925     -95.900548      684.10871    
    103000   307.20516      0.031564405    19.062359      762.18447     -102.38387      659.80061    
    104000   292.90236      0.031564405    16.309345      726.69882     -102.34971      624.34911    
    105000   302.46392      0.031564405    15.791301      750.42132     -100.33697      650.08435    
    106000   306.88796      0.031564405    19.335087      761.39748     -99.806843      661.59064    
    107000   302.50377      0.031564405    17.113359      750.5202      -96.808623      653.71158    
    108000   299.39962      0.031564405    6.3590934      742.8187      -95.597405      647.2213     
    109000   302.37033      0.031564405    14.894063      750.18912     -93.88756       656.30156    
    110000   292.47139      0.031564405    15.906495      725.62957     -93.790561      631.83901    
    111000   293.86233      0.031564405    14.588677      729.08054     -97.248802      631.83174    
    112000   306.50027      0.031564405    15.438569      760.43562     -99.51588       660.91974    
    113000   288.20745      0.031564405    15.475117      715.05063     -97.709541      617.34109    
    114000   300.94513      0.031564405    16.280191      746.65317     -99.651257      647.00192    
    115000   307.59417      0.031564405    14.902373      763.14962     -98.968218      664.1814     
    116000   278.2891       0.031564405    14.362472      690.44292     -105.02039      585.42253    
    117000   294.19032      0.031564405    18.082825      729.8943      -102.47902      627.41528    
    118000   309.51501      0.031564405    13.36047       767.91527     -101.43416      666.48111    
    119000   299.47985      0.031564405    15.825163      743.01776     -96.764982      646.25278    
    120000   290.49301      0.031564405    14.407268      720.72118     -86.476424      634.24475    
    121000   313.93236      0.031564405    17.835511      778.87483     -92.444545      686.43029    
    122000   307.85652      0.031564405    16.585621      763.80051     -90.908417      672.89209    
    123000   290.20183      0.031564405    14.649737      719.99875     -97.459818      622.53893    
    124000   292.98787      0.031564405    14.831995      726.91099     -93.114466      633.79652    
    125000   317.05129      0.031564405    15.46856       786.61298     -96.284108      690.32888    
    126000   300.81253      0.031564405    13.787037      746.32418     -90.220828      656.10335    
    127000   295.209        0.031564405    14.729834      732.42166     -94.781201      637.64046    
    128000   309.80364      0.031564405    18.669728      768.63136     -96.612391      672.01897    
    129000   315.34609      0.031564405    15.142079      782.38235     -92.519342      689.86301    
    130000   298.44859      0.031564405    16.48171       740.45917     -90.026317      650.43285    
    131000   299.85674      0.031564405    15.30335       743.95284     -90.024069      653.92877    
    132000   304.12633      0.031564405    16.645312      754.54581     -89.183202      665.36261    
    133000   291.26615      0.031564405    16.785987      722.63935     -83.820528      638.81882    
    134000   309.19665      0.031564405    15.876593      767.12542     -86.696822      680.4286     
    135000   297.06114      0.031564405    11.81003       737.01689     -86.37225       650.64464    
    136000   288.44331      0.031564405    15.163285      715.6358      -86.137555      629.49824    
    137000   298.51547      0.031564405    14.514056      740.62511     -95.033898      645.59121    
    138000   322.82487      0.031564405    18.436234      800.93741     -89.757829      711.17958    
    139000   297.25718      0.031564405    5.3712954      737.50325     -97.780038      639.72322    
    140000   285.81557      0.031564405    13.660273      709.1163      -96.10603       613.01027    
    141000   311.46532      0.031564405    15.211584      772.75405     -93.405915      679.34813    
    142000   308.00945      0.031564405    14.492044      764.17993     -89.108256      675.07168    
    143000   293.84749      0.031564405    11.885885      729.04371     -87.710852      641.33286    
    144000   290.85084      0.031564405    20.197752      721.60896     -89.930227      631.67874    
    145000   312.18091      0.031564405    16.911376      774.52944     -94.24829       680.28115    
    146000   302.65883      0.031564405    11.737768      750.9049      -91.761051      659.14385    
    147000   282.061        0.031564405    19.99963       699.80112     -86.189842      613.61128    
    148000   307.82992      0.031564405    18.801736      763.73451     -87.256348      676.47816    
    149000   303.82665      0.031564405    21.91801       753.80228     -87.271781      666.5305     
    150000   286.14267      0.031564405    8.6441557      709.92785     -83.498632      626.42922    
    151000   292.11532      0.031564405    18.996723      724.74617     -87.463713      637.28245    
    152000   303.13396      0.031564405    16.813152      752.08371     -84.788814      667.2949     
    153000   303.81489      0.031564405    14.668023      753.77311     -84.914758      668.85835    
    154000   297.0713       0.031564405    16.401434      737.0421      -84.219051      652.82304    
    155000   280.57094      0.031564405    14.592967      696.10424     -88.652073      607.45217    
    156000   309.15356      0.031564405    18.000508      767.01852     -100.62984      666.38868    
    157000   314.05613      0.031564405    15.605147      779.18192     -90.299049      688.88287    
    158000   283.26608      0.031564405    14.491019      702.79096     -85.719856      617.07111    
    159000   311.05334      0.031564405    16.593143      771.73191     -89.851396      681.88051    
    160000   304.69107      0.031564405    18.815707      755.94695     -85.721793      670.22516    
    161000   298.68347      0.031564405    5.4351785      741.04192     -80.157929      660.88399    
    162000   289.83857      0.031564405    10.850568      719.09749     -75.929066      643.16842    
    163000   307.81662      0.031564405    19.414646      763.70151     -79.316313      684.38519    
    164000   307.24807      0.031564405    18.873831      762.29093     -77.1858        685.10513    
    165000   307.29395      0.031564405    15.713453      762.40475     -72.719173      689.68558    
    166000   303.73036      0.031564405    16.042832      753.56338     -75.614959      677.94842    
    167000   295.94848      0.031564405    14.337423      734.25633     -73.680834      660.5755     
    168000   307.08612      0.031564405    15.550113      761.88912     -78.208357      683.68076    
    169000   303.13556      0.031564405    17.152346      752.08767     -76.752948      675.33472    
    170000   305.04752      0.031564405    15.999037      756.83131     -80.881534      675.94977    
    171000   296.46258      0.031564405    15.134799      735.53183     -76.870775      658.66105    
    172000   296.58737      0.031564405    14.828176      735.84144     -82.977795      652.86365    
    173000   298.92641      0.031564405    18.67851       741.64466     -85.609522      656.03514    
    174000   307.23252      0.031564405    16.92138       762.25235     -82.712396      679.53995    
    175000   296.56001      0.031564405    8.7216044      735.77357     -85.39304       650.38053    
    176000   303.02129      0.031564405    21.07476       751.80418     -85.852392      665.95178    
    177000   313.08159      0.031564405    17.016738      776.76405     -81.550276      695.21377    
    178000   303.93332      0.031564405   -0.085085301    754.06694     -83.160802      670.90614    
    179000   269.38551      0.031564405   -0.37128332     668.35289     -82.060356      586.29253    
    180000   297.89975      0.031564405    8.586799       739.09749     -86.657831      652.43966    
    181000   310.8042       0.031564405    18.286742      771.11379     -77.279638      693.83415    
    182000   309.95501      0.031564405    24.801169      769.00692     -79.942097      689.06482    
    183000   304.01542      0.031564405    9.5513003      754.27063     -76.519609      677.75102    
    184000   293.16737      0.031564405    20.734626      727.35633     -76.803433      650.5529     
    185000   276.60733      0.031564405    29.823722      686.27042     -78.219503      608.05091    
    186000   295.06955      0.031564405    36.641687      732.07568     -80.572289      651.50339    
    187000   308.39719      0.031564405    22.981747      765.14193     -84.099028      681.0429     
    188000   306.17973      0.031564405   -1.2079959      759.64036     -84.21693       675.42343    
    189000   300.42054      0.031564405    19.340922      745.35164     -80.602838      664.7488     
    190000   285.99732      0.031564405    22.861255      709.56723     -80.590039      628.97719    
    191000   314.40415      0.031564405    18.683788      780.04536     -86.224246      693.82112    
    192000   304.0947       0.031564405    18.053156      754.46732     -86.093719      668.3736     
    193000   290.29631      0.031564405    16.381035      720.23314     -86.632255      633.60089    
    194000   304.37546      0.031564405    17.405847      755.16392     -81.048451      674.11546    
    195000   313.1431       0.031564405    16.136048      776.91665     -80.931877      695.98478    
    196000   293.98168      0.031564405    11.707871      729.37666     -79.755485      649.62117    
    197000   287.32518      0.031564405    17.649525      712.8617      -81.164884      631.69682    
    198000   309.68437      0.031564405    17.48211       768.33545     -74.475576      693.85988    
    199000   299.13312      0.031564405    16.702601      742.15753     -73.654144      668.50338    
    200000   292.27995      0.031564405    14.786019      725.15461     -80.395432      644.75918    
    201000   310.88149      0.031564405    20.937453      771.30555     -75.451196      695.85435    
    202000   308.67642      0.031564405    15.842787      765.83471     -72.300708      693.534      
    203000   289.65189      0.031564405    16.553513      718.63433     -74.710213      643.92412    
    204000   302.75272      0.031564405    10.940414      751.13784     -67.900224      683.23762    
    205000   314.44846      0.031564405    15.482849      780.15529     -71.11492       709.04037    
    206000   291.91043      0.031564405    18.99235       724.23782     -71.789903      652.44792    
    207000   286.0594       0.031564405    16.469998      709.72126     -70.084844      639.63642    
    208000   307.42617      0.031564405    15.431904      762.7328      -72.970137      689.76267    
    209000   313.95491      0.031564405    19.999086      778.93078     -80.039436      698.89135    
    210000   289.74049      0.031564405    12.22504       718.85413     -75.359331      643.4948     
    211000   302.03483      0.031564405    11.775594      749.35675     -77.192519      672.16423    
    212000   300.94738      0.031564405    29.033458      746.65875     -66.42941       680.22934    
    213000   300.83231      0.031564405    10.311336      746.37324     -67.181507      679.19174    
    214000   307.38728      0.031564405    12.002839      762.63631     -66.142642      696.49367    
    215000   299.26576      0.031564405    23.774453      742.4866      -66.276905      676.20969    
    216000   298.27134      0.031564405    16.85042       740.01942     -68.563273      671.45614    
    217000   290.82059      0.031564405    11.747991      721.5339      -67.491954      654.04195    
    218000   299.83625      0.031564405    10.397723      743.902       -69.553409      674.34859    
    219000   304.23965      0.031564405    18.725498      754.82695     -66.99628       687.83067    
    220000   302.41078      0.031564405    14.610845      750.28949     -63.9362        686.35329    
    221000   280.35727      0.031564405    10.352455      695.57412     -58.55561       637.01851    
    222000   295.40678      0.031564405    14.042012      732.91237     -64.877421      668.03495    
    223000   314.48689      0.031564405    15.736097      780.25064     -63.09135       717.15929    
    224000   302.52792      0.031564405    18.529569      750.58012     -57.864989      692.71513    
    225000   286.1113       0.031564405    16.567416      709.85001     -55.711851      654.13816    
    226000   299.36096      0.031564405    14.828795      742.72279     -56.258136      686.46465    
    227000   316.44078      0.031564405    17.881328      785.0983      -54.206702      730.8916     
    228000   289.07049      0.031564405    16.961363      717.19184     -58.376822      658.81502    
    229000   289.49397      0.031564405    15.423573      718.24251     -54.927253      663.31526    
    230000   306.89309      0.031564405    12.201472      761.41022     -60.70941       700.70081    
    231000   306.31978      0.031564405    17.839822      759.98781     -56.88079       703.10702    
    232000   288.98713      0.031564405    16.100638      716.98503     -52.003784      664.98125    
    233000   325.72924      0.031564405    11.240264      808.14322     -51.955248      756.18798    
    234000   298.09492      0.031564405    22.532212      739.58171     -49.295737      690.28597    
    235000   288.15305      0.031564405    1.4931354      714.91566     -45.801087      669.11457    
    236000   300.43538      0.031564405    12.571225      745.38845     -52.760532      692.62792    
    237000   303.07192      0.031564405    14.718073      751.92979     -59.841206      692.08858    
    238000   305.00646      0.031564405    16.416962      756.72944     -52.890053      703.83939    
    239000   293.35717      0.031564405    24.39489       727.82721     -56.333427      671.49379    
    240000   300.14614      0.031564405    39.945285      744.67084     -58.007064      686.66378    
    241000   292.19413      0.031564405    20.866063      724.94169     -57.475752      667.46594    
    242000   314.02895      0.031564405    15.068862      779.11448     -56.00584       723.10864    
    243000   303.68377      0.031564405    17.423019      753.4478      -49.511146      703.93665    
    244000   305.07657      0.031564405    18.815433      756.90339     -54.584604      702.31878    
    245000   303.50588      0.031564405    17.137646      753.00647     -57.323669      695.6828     
    246000   293.89587      0.031564405    16.635515      729.16375     -52.698536      676.46521    
    247000   293.40861      0.031564405    17.031439      727.95485     -56.771114      671.18374    
    248000   307.12469      0.031564405    14.369904      761.98483     -56.754138      705.23069    
    249000   305.60834      0.031564405    15.356745      758.22273     -57.59327       700.62946    
    250000   307.12844      0.031564405    14.95094       761.99413     -56.443271      705.55086    
    251000   301.15999      0.031564405    20.152258      747.18623     -53.242288      693.94394    
    252000   289.62192      0.031564405    18.834263      718.55996     -59.49922       659.06074    
    253000   287.31162      0.031564405    8.5714839      712.82806     -53.877864      658.95019    
    254000   311.40538      0.031564405    17.730345      772.60532     -47.91463       724.69069    
    255000   302.12085      0.031564405    16.212576      749.57016     -43.897359      705.6728     
    256000   299.32257      0.031564405    17.728841      742.62756     -43.409206      699.21835    
    257000   298.75933      0.031564405    18.547728      741.23014     -45.094466      696.13568    
    258000   319.34509      0.031564405    17.850248      792.30397     -50.588966      741.71501    
    259000   300.78381      0.031564405    16.740358      746.25293     -48.644936      697.60799    
    260000   286.89741      0.031564405    15.926905      711.80037     -56.852325      654.94805    
    261000   283.35034      0.031564405    8.4020287      703           -57.019927      645.98008    
    262000   315.11903      0.031564405    17.440783      781.81901     -48.947918      732.87109    
    263000   293.73191      0.031564405    16.262439      728.75697     -54.302104      674.45486    
    264000   284.73831      0.031564405    10.531164      706.44361     -55.626901      650.8167     
    265000   306.95396      0.031564405    13.434677      761.56124     -56.821613      704.73962    
    266000   306.05887      0.031564405    16.934641      759.34049     -48.393032      710.94746    
    267000   299.62307      0.031564405    16.011593      743.37309     -53.120863      690.25222    
    268000   295.62965      0.031564405    14.747484      733.46531     -50.412657      683.05265    
    269000   301.86386      0.031564405    19.162612      748.93255     -54.382963      694.54959    
    270000   302.86778      0.031564405    14.587383      751.42331     -55.919024      695.50429    
    271000   280.66         0.031564405    6.6139754      696.32519     -59.965683      636.35951    
    272000   291.59265      0.031564405    13.648022      723.4494      -56.432965      667.01643    
    273000   308.66034      0.031564405    25.548864      765.7948      -61.637078      704.15772    
    274000   310.9205       0.031564405    19.718751      771.40234     -54.132352      717.26999    
    275000   297.54716      0.031564405    14.562682      738.22271     -57.72409       680.49862    
    276000   303.92098      0.031564405    9.3082051      754.03633     -53.702966      700.33336    
    277000   298.74047      0.031564405    13.413443      741.18334     -52.601314      688.58203    
    278000   299.99221      0.031564405    15.207312      744.28894     -51.035767      693.25317    
    279000   302.37556      0.031564405    17.596404      750.20211     -53.694657      696.50745    
    280000   303.23498      0.031564405    19.141876      752.33436     -57.870715      694.46364    
    281000   299.19875      0.031564405    17.05594       742.32035     -53.609153      688.71119    
    282000   308.93384      0.031564405    14.956882      766.47337     -53.361908      713.11147    
    283000   303.41439      0.031564405    17.470147      752.77946     -53.179651      699.59981    
    284000   304.41966      0.031564405    15.07798       755.27357     -58.976212      696.29736    
    285000   296.44301      0.031564405    14.68986       735.48329     -52.076409      683.40688    
    286000   297.80848      0.031564405    12.788695      738.87104     -52.875212      685.99583    
    287000   298.25007      0.031564405    20.022611      739.96665     -53.823529      686.14312    
    288000   306.63297      0.031564405    21.228194      760.76485     -53.492113      707.27274    
    289000   307.71639      0.031564405    10.654789      763.45285     -55.462113      707.99073    
    290000   300.63967      0.031564405    12.878432      745.8953      -63.115863      682.77944    
    291000   291.04457      0.031564405    17.836268      722.0896      -63.858083      658.23151    
    292000   297.42594      0.031564405    28.827585      737.92195     -62.897597      675.02435    
    293000   297.24964      0.031564405    14.258804      737.48455     -59.064908      678.41964    
    294000   304.67068      0.031564405    6.3659766      755.89637     -55.740937      700.15543    
    295000   297.21835      0.031564405    15.695038      737.40691     -59.401923      678.00498    
    296000   290.81767      0.031564405    22.96302       721.52665     -59.130538      662.39612    
    297000   312.14531      0.031564405    16.623767      774.44112     -58.394599      716.04653    
    298000   300.0848       0.031564405    13.330832      744.51867     -54.139304      690.37936    
    299000   287.33608      0.031564405    16.480842      712.88873     -61.089521      651.7992     
    300000   283.13367      0.031564405    23.473541      702.46244     -58.059465      644.40297    
    301000   308.67589      0.031564405    14.883473      765.83338     -58.675599      707.15778    
    302000   306.81378      0.031564405    17.0167        761.21345     -59.994662      701.21879    
    303000   292.30812      0.031564405    16.798948      725.2245      -57.107696      668.11681    
    304000   307.76821      0.031564405    17.696872      763.58142     -63.055494      700.52592    
    305000   295.00606      0.031564405    15.20947       731.91816     -65.167619      666.75054    
    306000   300.52379      0.031564405    14.785356      745.60781     -62.856062      682.75175    
    307000   306.65569      0.031564405    15.747059      760.82121     -63.096473      697.72474    
    308000   299.40037      0.031564405    15.450271      742.82057     -64.816195      678.00437    
    309000   289.22054      0.031564405    15.477061      717.56412     -55.570677      661.99344    
    310000   304.96184      0.031564405    17.991351      756.61873     -61.940465      694.67826    
    311000   301.26893      0.031564405    16.889527      747.45651     -53.044684      694.41183    
    312000   304.19657      0.031564405    16.229506      754.72007     -56.89176       697.82831    
    313000   313.03444      0.031564405    13.66026       776.64707     -55.643084      721.00398    
    314000   293.98515      0.031564405    16.145265      729.38527     -45.433263      683.95201    
    315000   298.37196      0.031564405    17.696401      740.26907     -51.481257      688.78781    
    316000   315.02548      0.031564405    17.23919       781.58691     -54.908081      726.67883    
    317000   299.50079      0.031564405    19.402377      743.06972     -48.249017      694.8207     
    318000   305.47108      0.031564405    16.567688      757.88218     -56.131974      701.7502     
    319000   309.5699       0.031564405    18.173635      768.05146     -52.713138      715.33832    
    320000   303.277        0.031564405    21.238185      752.43859     -54.822276      697.61632    
    321000   299.72396      0.031564405    22.221905      743.62341     -54.544692      689.07872    
    322000   310.24639      0.031564405    15.720635      769.72986     -60.423953      709.3059     
    323000   302.04658      0.031564405    15.66415       749.38589     -56.856006      692.52988    
    324000   297.29466      0.031564405    13.528111      737.59626     -64.965752      672.63051    
    325000   306.96762      0.031564405    26.254077      761.59512     -56.329211      705.26591    
    326000   297.72211      0.031564405    20.038465      738.65675     -61.085486      677.57126    
    327000   298.40759      0.031564405    16.911761      740.35746     -58.177393      682.18006    
    328000   294.58606      0.031564405    16.602462      730.87614     -61.889468      668.98667    
    329000   288.92414      0.031564405    15.662322      716.82876     -55.831073      660.99768    
    330000   292.84942      0.031564405    17.23341       726.56748     -58.10769       668.45979    
    331000   304.8324       0.031564405    12.365635      756.29758     -52.703142      703.59444    
    332000   318.72521      0.031564405    22.727108      790.76602     -59.534184      731.23184    
    333000   300.00034      0.031564405    18.918494      744.30911     -55.667078      688.64203    
    334000   291.68041      0.031564405    15.562044      723.66714     -59.18911       664.47803    
    335000   295.08106      0.031564405    14.66628       732.10425     -59.450068      672.65419    
    336000   298.33737      0.031564405    18.725944      740.18325     -59.212863      680.97039    
    337000   311.3432       0.031564405    18.959432      772.45107     -54.73495       717.71612    
    338000   301.293        0.031564405    18.012441      747.51623     -57.483299      690.03293    
    339000   297.23085      0.031564405    13.236218      737.43793     -59.872182      677.56574    
    340000   311.32054      0.031564405    18.687063      772.39483     -58.619996      713.77483    
    341000   297.33984      0.031564405    17.172877      737.70833     -60.522495      677.18584    
    342000   280.37931      0.031564405    16.164681      695.6288      -55.867582      639.76122    
    343000   301.19872      0.031564405    17.777091      747.28233     -54.385657      692.89667    
    344000   305.48567      0.031564405    16.691536      757.91837     -56.68984       701.22853    
    345000   308.86968      0.031564405    16.885361      766.31419     -52.508205      713.80599    
    346000   294.01156      0.031564405    16.551891      729.45078     -49.18531       680.26547    
    347000   298.88801      0.031564405    15.88442       741.54938     -51.567504      689.98188    
    348000   300.33066      0.031564405    16.220891      745.12864     -50.47254       694.6561     
    349000   311.57696      0.031564405    17.491988      773.03103     -51.054478      721.97655    
    350000   297.43821      0.031564405    12.184151      737.95239     -48.037159      689.91523    
    351000   294.23926      0.031564405    16.2288        730.01572     -46.323955      683.69176    
    352000   297.57255      0.031564405    14.745072      738.28571     -51.629633      686.65608    
    353000   311.06354      0.031564405    17.526516      771.75722     -46.366456      725.39077    
    354000   302.74158      0.031564405    15.272845      751.11021     -44.623263      706.48695    
    355000   295.45267      0.031564405    16.108864      733.02621     -42.375469      690.65074    
    356000   286.877        0.031564405    21.801583      711.74975     -52.156237      659.59351    
    357000   308.76347      0.031564405    21.518139      766.05068     -50.559464      715.49122    
    358000   310.85008      0.031564405    11.129551      771.22762     -45.330419      725.8972     
    359000   296.37292      0.031564405    15.927714      735.30938     -47.120425      688.18896    
    360000   291.66547      0.031564405    15.594193      723.63006     -47.462411      676.16765    
    361000   298.83183      0.031564405    17.785701      741.41        -44.105055      697.30494    
    362000   311.2166       0.031564405    16.257428      772.13697     -42.793996      729.34297    
    363000   303.963        0.031564405    18.740632      754.14058     -48.673415      705.46717    
    364000   298.5635       0.031564405    11.00486       740.74426     -47.41466       693.3296     
    365000   303.13165      0.031564405    20.466399      752.07798     -43.285619      708.79236    
    366000   308.64371      0.031564405    16.649118      765.75356     -57.586427      708.16713    
    367000   301.15284      0.031564405    17.124473      747.16849     -55.941175      691.22731    
    368000   294.11479      0.031564405    15.296169      729.7069      -52.396207      677.3107     
    369000   305.39158      0.031564405    15.654904      757.68492     -49.006822      708.6781     
    370000   310.36755      0.031564405    15.643096      770.03046     -47.490277      722.54018    
    371000   301.51477      0.031564405    18.50697       748.06645     -47.256525      700.80993    
    372000   292.20921      0.031564405    17.169359      724.9791      -44.077541      680.90156    
    373000   298.37233      0.031564405    13.287928      740.26997     -51.297426      688.97255    
    374000   311.84586      0.031564405    16.119734      773.69818     -49.592158      724.10602    
    375000   298.93554      0.031564405    15.762693      741.66732     -45.726267      695.94105    
    376000   299.53288      0.031564405    17.423499      743.14934     -49.57954       693.5698     
    377000   301.25248      0.031564405    19.105371      747.41571     -45.691221      701.72449    
    378000   309.06255      0.031564405    14.968546      766.79271     -48.399288      718.39343    
    379000   308.55921      0.031564405    11.879802      765.5439      -46.126101      719.4178     
    380000   304.91351      0.031564405    14.638127      756.49881     -49.841877      706.65693    
    381000   283.55341      0.031564405    19.664577      703.50383     -48.603001      654.90083    
    382000   294.45035      0.031564405    22.981319      730.53943     -50.658461      679.88097    
    383000   301.11414      0.031564405    43.023724      747.07247     -51.486242      695.58623    
    384000   314.87471      0.031564405    13.874211      781.21283     -43.586533      737.62629    
    385000   305.74103      0.031564405    1.6295877      758.55193     -47.104185      711.44774    
    386000   283.70899      0.031564405    6.0547936      703.88983     -47.719         656.17083    
    387000   292.76777      0.031564405    27.38343       726.36492     -45.952629      680.41229    
    388000   304.51434      0.031564405    19.731894      755.50847     -46.248375      709.2601     
    389000   314.73656      0.031564405    16.25115       780.87007     -46.036688      734.83339    
    390000   296.37944      0.031564405    3.0706959      735.32556     -44.758573      690.56699    
    391000   294.28585      0.031564405    17.322178      730.1313      -45.555934      684.57537    
    392000   317.65118      0.031564405    22.255703      788.10134     -45.219712      742.88163    
    393000   309.82247      0.031564405    15.025132      768.67808     -44.704484      723.9736     
    394000   288.99634      0.031564405    12.953347      717.00789     -51.120368      665.88753    
    395000   299.54773      0.031564405    26.683149      743.18617     -54.139191      689.04698    
    396000   313.55854      0.031564405    23.065473      777.94737     -62.626611      715.32076    
    397000   303.85919      0.031564405    13.122451      753.88302     -57.426328      696.4567     
    398000   296.98376      0.031564405    17.047493      736.8249      -52.502538      684.32236    
    399000   307.47627      0.031564405    25.424621      762.85709     -58.636371      704.22072    
    400000   303.1503       0.031564405    16.382267      752.12424     -52.721718      699.40252    
    401000   301.88782      0.031564405    15.380537      748.99201     -55.185562      693.80645    
    402000   297.17446      0.031564405    23.225371      737.29803     -56.935137      680.36289    
    403000   309.1965       0.031564405    21.699802      767.12505     -58.131245      708.9938     
    404000   321.27025      0.031564405    17.007711      797.08035     -54.482356      742.59799    
    405000   305.32074      0.031564405    10.622661      757.50917     -55.757857      701.75131    
    406000   294.76429      0.031564405    13.827006      731.31833     -52.691412      678.62692    
    407000   295.13577      0.031564405    27.336219      732.23998     -49.485382      682.7546     
    408000   303.30749      0.031564405    22.756241      752.51424     -48.337373      704.17687    
    409000   309.61055      0.031564405    19.8441        768.15231     -56.812425      711.33989    
    410000   305.4731       0.031564405    13.205926      757.88717     -53.450367      704.4368     
    411000   295.33995      0.031564405    14.410805      732.74655     -54.06723       678.67932    
    412000   291.67337      0.031564405    18.97558       723.64968     -58.47707       665.17261    
    413000   283.1408       0.031564405    9.728683       702.48014     -59.340391      643.13975    
    414000   299.03075      0.031564405    18.307381      741.90353     -56.993727      684.9098     
    415000   315.91846      0.031564405    15.16757       783.80241     -58.275847      725.52656    
    416000   302.24391      0.031564405    10.932524      749.87547     -51.995353      697.88012    
    417000   285.59952      0.031564405    17.857499      708.58028     -52.411882      656.1684     
    418000   297.62534      0.031564405    18.613505      738.41666     -51.021715      687.39495    
    419000   302.78299      0.031564405    17.225273      751.21295     -59.061913      692.15104    
    420000   305.21163      0.031564405    15.614127      757.23847     -63.089025      694.14945    
    421000   309.51118      0.031564405    19.403478      767.90578     -58.642854      709.26293    
    422000   297.15292      0.031564405    16.230676      737.24459     -56.941258      680.30333    
    423000   293.97854      0.031564405    16.871902      729.36886     -54.387754      674.98111    
    424000   304.60645      0.031564405    13.316473      755.73699     -50.131265      705.60573    
    425000   305.91061      0.031564405    16.712225      758.97266     -50.581732      708.39093    
    426000   307.49735      0.031564405    18.928194      762.9094      -51.206849      711.70255    
    427000   302.86831      0.031564405    20.601166      751.42464     -50.333983      701.09065    
    428000   297.38679      0.031564405    16.731482      737.82483     -49.72031       688.10452    
    429000   287.00885      0.031564405    17.066255      712.07686     -46.636794      665.44006    
    430000   288.90692      0.031564405    7.5396741      716.78603     -53.204278      663.58175    
    431000   303.03983      0.031564405    15.668746      751.85017     -47.558185      704.29198    
    432000   309.49747      0.031564405    15.413024      767.87177     -53.211826      714.65994    
    433000   287.43095      0.031564405    15.774794      713.12411     -53.204244      659.91987    
    434000   299.10146      0.031564405    16.809485      742.07897     -50.897203      691.18177    
    435000   312.07734      0.031564405    17.751775      774.27247     -44.238116      730.03436    
    436000   290.18439      0.031564405    14.829213      719.95548     -49.668605      670.28687    
    437000   282.9244       0.031564405    15.112433      701.94323     -47.177175      654.76606    
    438000   300.74941      0.031564405    15.04885       746.16758     -50.006171      696.16141    
    439000   303.14862      0.031564405    16.974612      752.12009     -49.32757       702.79252    
    440000   299.54432      0.031564405    18.348202      743.17771     -54.540305      688.63741    
    441000   308.23868      0.031564405    13.099951      764.74865     -62.795681      701.95297    
    442000   292.90239      0.031564405    20.705281      726.69891     -61.061755      665.63716    
    443000   301.39982      0.031564405    15.26351       747.78126     -59.786865      687.99439    
    444000   294.41512      0.031564405    22.741073      730.45204     -56.433223      674.01882    
    445000   298.88956      0.031564405    21.854038      741.55325     -54.200052      687.3532     
    446000   306.53889      0.031564405    17.095849      760.53143     -52.166658      708.36477    
    447000   305.77008      0.031564405    13.183513      758.62399     -50.457578      708.16642    
    448000   288.67455      0.031564405    9.192482       716.20951     -49.785043      666.42446    
    449000   289.79919      0.031564405    19.041369      718.99977     -51.61532       667.38445    
    450000   294.68053      0.031564405    21.750655      731.11052     -53.419729      677.69079    
    451000   308.96527      0.031564405    17.303036      766.55135     -59.228781      707.32257    
    452000   293.8138       0.031564405    19.953119      728.96015     -49.346129      679.61402    
    453000   294.88821      0.031564405    16.118359      731.62577     -53.413949      678.21182    
    454000   311.07714      0.031564405    18.447829      771.79097     -56.669749      715.12122    
    455000   307.19215      0.031564405    15.448046      762.15219     -52.965645      709.18655    
    456000   294.70834      0.031564405    13.75364       731.17952     -56.073431      675.10609    
    457000   284.65953      0.031564405    16.800524      706.24813     -57.725548      648.52258    
    458000   298.47068      0.031564405    15.576093      740.51398     -55.203963      685.31002    
    459000   303.63023      0.031564405    19.34722       753.31496     -57.059248      696.25571    
    460000   312.03876      0.031564405    17.163384      774.17676     -56.890192      717.28656    
    461000   305.01755      0.031564405   -4.2479814      756.75695     -57.947774      698.80918    
    462000   291.77907      0.031564405    14.808182      723.9119      -62.307951      661.60395    
    463000   298.84236      0.031564405    31.840604      741.43613     -61.298349      680.13778    
    464000   314.28703      0.031564405    16.704134      779.75477     -53.8493        725.90547    
    465000   300.33545      0.031564405    12.329687      745.14052     -58.457797      686.68272    
    466000   293.77593      0.031564405    16.794633      728.86618     -55.741635      673.12455    
    467000   302.01442      0.031564405    14.933914      749.30609     -57.808024      691.49807    
    468000   293.94542      0.031564405    14.317294      729.28669     -60.000251      669.28644    
    469000   300.81986      0.031564405    17.41679       746.34235     -50.117006      696.22535    
    470000   307.08865      0.031564405    17.976824      761.89541     -52.892335      709.00307    
    471000   293.87207      0.031564405    20.764263      729.1047      -55.687492      673.41721    
    472000   303.31926      0.031564405    17.121809      752.54345     -50.351752      702.19169    
    473000   293.45196      0.031564405    10.397851      728.06239     -58.606332      669.45606    
    474000   312.53702      0.031564405    18.800575      775.41296     -62.814633      712.59832    
    475000   311.23334      0.031564405    31.454288      772.17849     -57.550292      714.6282     
    476000   290.56858      0.031564405    12.513049      720.90867     -60.563473      660.34519    
    477000   305.55119      0.031564405    15.786978      758.08093     -54.647301      703.43363    
    478000   307.12512      0.031564405    21.304599      761.9859      -57.350598      704.6353     
    479000   288.54899      0.031564405    13.307692      715.898       -59.359923      656.53808    
    480000   283.96141      0.031564405    16.900521      704.51608     -59.043485      645.4726     
    481000   298.14367      0.031564405    12.804663      739.70267     -55.777602      683.92507    
    482000   297.58673      0.031564405    17.532472      738.32088     -51.045584      687.2753     
    483000   307.26768      0.031564405    15.76272       762.33959     -54.502067      707.83753    
    484000   299.95664      0.031564405    15.374946      744.20069     -53.995544      690.20514    
    485000   286.40744      0.031564405    15.738705      710.58475     -52.74354       657.84121    
    486000   301.19235      0.031564405    14.249257      747.26653     -60.212513      687.05402    
    487000   300.41109      0.031564405    20.96538       745.3282      -58.279224      687.04898    
    488000   292.1058       0.031564405    12.402906      724.72255     -51.015131      673.70742    
    489000   314.26429      0.031564405    16.525178      779.69837     -53.533859      726.16451    
    490000   302.4811       0.031564405    17.966042      750.46394     -52.507055      697.95688    
    491000   292.05248      0.031564405    20.590506      724.59025     -42.844042      681.7462     
    492000   296.17297      0.031564405    17.806746      734.8133      -47.748057      687.06525    
    493000   307.98244      0.031564405    13.381273      764.11293     -40.960188      723.15274    
    494000   301.39244      0.031564405    11.782444      747.76294     -51.998877      695.76406    
    495000   314.79169      0.031564405    24.469696      781.00687     -53.802418      727.20445    
    496000   298.79453      0.031564405    20.429554      741.31746     -52.798909      688.51855    
    497000   305.37892      0.031564405    15.995191      757.65353     -46.977914      710.67562    
    498000   305.8328       0.031564405    14.378624      758.77961     -42.436799      716.34281    
    499000   293.49738      0.031564405    16.535775      728.17509     -46.229198      681.9459     
    500000   299.22406      0.031564405    16.733681      742.38314     -44.798894      697.58425    
    501000   290.40298      0.031564405    14.502096      720.49781     -47.714914      672.78289    
    502000   304.23226      0.031564405    17.554468      754.80861     -50.225616      704.583      
    503000   307.64916      0.031564405    17.193393      763.28605     -48.641983      714.64406    
    504000   282.20595      0.031564405    17.164431      700.16074     -42.864722      657.29602    
    505000   297.12941      0.031564405    17.000964      737.18625     -45.574752      691.6115     
    506000   296.90398      0.031564405    21.233613      736.62696     -47.073941      689.55302    
    507000   303.9514       0.031564405    21.592781      754.11179     -43.218521      710.89327    
    508000   290.31092      0.031564405    17.155612      720.26938     -43.314623      676.95476    
    509000   297.13377      0.031564405    15.083341      737.19708     -43.319124      693.87795    
    510000   309.60588      0.031564405    23.651737      768.14071     -42.429557      725.71116    
    511000   303.93466      0.031564405    18.023716      754.07028     -46.407099      707.66318    
    512000   299.51118      0.031564405    9.59836        743.0955      -52.343504      690.752      
    513000   290.18859      0.031564405    14.906812      719.9659      -45.272678      674.69322    
    514000   294.33318      0.031564405    18.571906      730.24874     -50.2969        679.95184    
    515000   314.55961      0.031564405    21.29936       780.43107     -51.262179      729.16889    
    516000   298.89638      0.031564405    15.744506      741.57017     -49.877982      691.69218    
    517000   296.64387      0.031564405    11.839436      735.98163     -52.276675      683.70495    
    518000   302.48628      0.031564405    23.516396      750.4768      -51.095904      699.3809     
    519000   299.66894      0.031564405    17.377156      743.48689     -50.331376      693.15552    
    520000   314.36155      0.031564405    11.74108       779.93968     -50.148634      729.79105    
    521000   294.81703      0.031564405   -1.5057847      731.44918     -53.357891      678.09129    
    522000   298.58817      0.031564405    29.116931      740.80547     -53.25694       687.54853    
    523000   304.06029      0.031564405    19.086215      754.38196     -60.00004       694.38192    
    524000   313.03216      0.031564405    13.588941      776.64142     -51.286251      725.35517    
    525000   288.33937      0.031564405    19.105432      715.37794     -41.388778      673.98916    
    526000   294.52329      0.031564405    18.843235      730.72039     -49.029899      681.6905     
    527000   311.45821      0.031564405    15.873031      772.73642     -53.169067      719.56735    
    528000   294.03819      0.031564405    15.271604      729.51686     -50.873105      678.64376    
    529000   297.5613       0.031564405    14.073517      738.25778     -55.413804      682.84398    
    530000   302.08785      0.031564405    21.524066      749.48828     -48.887153      700.60112    
    531000   304.97095      0.031564405   -0.41938319     756.64134     -56.678796      699.96254    
    532000   294.5615       0.031564405    13.396669      730.8152      -56.319385      674.49582    
    533000   297.63822      0.031564405    9.7964953      738.44863     -55.884587      682.56404    
    534000   288.37015      0.031564405    18.95885       715.45429     -59.809018      655.64527    
    535000   301.16134      0.031564405    18.152291      747.18958     -54.285862      692.90372    
    536000   315.16873      0.031564405    12.453128      781.94231     -52.362886      729.57942    
    537000   293.99276      0.031564405    19.523501      729.40413     -59.898425      669.50571    
    538000   307.22879      0.031564405    20.049917      762.2431      -66.337442      695.90566    
    539000   304.75177      0.031564405    17.719317      756.09755     -57.599666      698.49788    
    540000   296.27455      0.031564405    17.001819      735.06532     -64.480053      670.58527    
    541000   296.42701      0.031564405   -2.3686952      735.44358     -61.182982      674.2606     
    542000   310.02559      0.031564405    19.661777      769.18202     -53.290178      715.89185    
    543000   302.54902      0.031564405    16.057191      750.63247     -53.627766      697.0047     
    544000   289.44654      0.031564405    16.435854      718.12484     -53.447405      664.67744    
    545000   304.43126      0.031564405    13.15365       755.30235     -58.721412      696.58094    
    546000   295.04571      0.031564405    22.950681      732.01653     -53.39776       678.61877    
    547000   302.01434      0.031564405    14.212739      749.3059      -55.217855      694.08805    
    548000   296.35007      0.031564405    11.225169      735.2527      -55.551588      679.70111    
    549000   306.52901      0.031564405    17.885833      760.50692     -51.953245      708.55367    
    550000   296.05526      0.031564405    18.97962       734.52127     -49.304921      685.21635    
    551000   294.69496      0.031564405    6.6073726      731.14632     -53.796158      677.35017    
    552000   295.45373      0.031564405    15.48746       733.02884     -58.960528      674.06831    
    553000   310.34393      0.031564405    16.355034      769.97186     -53.668847      716.30301    
    554000   297.12341      0.031564405    20.652794      737.17137     -53.327101      683.84427    
    555000   286.01616      0.031564405    17.227352      709.61398     -50.607819      659.00616    
    556000   305.43993      0.031564405    8.0453771      757.80489     -49.437885      708.36701    
    557000   311.36896      0.031564405    11.708343      772.51496     -57.234593      715.28037    
    558000   298.15424      0.031564405    15.840165      739.72888     -56.777994      682.95088    
    559000   301.59539      0.031564405    17.907755      748.26647     -52.211778      696.05469    
    560000   318.04923      0.031564405    15.707275      789.0889      -48.807759      740.28114    
    561000   295.09937      0.031564405    12.744786      732.14966     -53.675055      678.47461    
    562000   302.31931      0.031564405    16.895779      750.06255     -54.535955      695.52659    
    563000   296.86681      0.031564405    18.473618      736.53473     -58.010118      678.52461    
    564000   287.23335      0.031564405    18.559843      712.63385     -53.864769      658.76908    
    565000   312.01985      0.031564405    4.8945896      774.12984     -51.676892      722.45295    
    566000   306.19033      0.031564405    19.584506      759.66666     -56.803199      702.86346    
    567000   280.90728      0.031564405    13.764141      696.93871     -51.720658      645.21805    
    568000   297.96886      0.031564405    13.854738      739.26895     -47.348142      691.92081    
    569000   312.81953      0.031564405    14.158021      776.11387     -48.12965       727.98422    
    570000   301.14603      0.031564405    17.835034      747.1516      -52.227685      694.92391    
    571000   291.30365      0.031564405    15.320688      722.73238     -54.72116       668.01122    
    572000   302.39227      0.031564405    27.57345       750.24357     -60.017288      690.22628    
    573000   309.79858      0.031564405    21.989939      768.61882     -50.514978      718.10384    
    574000   314.68046      0.031564405    14.548059      780.7309      -46.340596      734.39031    
    575000   295.25317      0.031564405    11.335376      732.53125     -45.345432      687.18581    
    576000   290.88026      0.031564405    23.590575      721.68194     -49.548463      672.13347    
    577000   305.70232      0.031564405    19.073253      758.45587     -48.712713      709.74316    
    578000   316.22715      0.031564405    11.644795      784.56829     -53.327259      731.24103    
    579000   295.94581      0.031564405    8.9443701      734.24972     -51.395536      682.85418    
    580000   303.19252      0.031564405    8.2138178      752.22899     -48.998801      703.23019    
    581000   303.55092      0.031564405    15.94215       753.11819     -46.546636      706.57155    
    582000   303.33855      0.031564405    18.212233      752.59131     -44.923409      707.6679     
    583000   287.43591      0.031564405    13.63754       713.13641     -47.294084      665.84232    
    584000   290.98638      0.031564405    12.917387      721.94524     -46.819465      675.12577    
    585000   299.06209      0.031564405    15.563094      741.98129     -47.641509      694.33978    
    586000   310.85719      0.031564405    15.473394      771.24526     -48.359128      722.88613    
    587000   292.86168      0.031564405    13.289143      726.5979      -51.20545       675.39245    
    588000   287.09231      0.031564405    16.400054      712.28393     -50.563079      661.72085    
    589000   313.70702      0.031564405    26.140764      778.31577     -48.593089      729.72268    
    590000   319.68824      0.031564405    18.079709      793.15534     -51.604714      741.55063    
    591000   301.19373      0.031564405    15.757178      747.26994     -45.389227      701.88072    
    592000   285.63424      0.031564405    15.18109       708.66642     -52.121729      656.54469    
    593000   306.51087      0.031564405    16.912703      760.46191     -53.602248      706.85966    
    594000   299.65846      0.031564405    13.632587      743.46089     -48.315221      695.14567    
    595000   292.21727      0.031564405    17.251218      724.99911     -51.571588      673.42752    
    596000   301.15585      0.031564405    16.186736      747.17598     -53.090552      694.08542    
    597000   300.0207       0.031564405    14.730167      744.35964     -48.866704      695.49293    
    598000   298.61524      0.031564405    15.331682      740.87265     -46.751338      694.12131    
    599000   311.1575       0.031564405    18.258337      771.99033     -45.835658      726.15467    
    600000   303.88556      0.031564405    14.621883      753.94846     -46.558436      707.39003    
    601000   294.47223      0.031564405    16.817682      730.59373     -51.434255      679.15947    
    602000   303.56921      0.031564405    20.416388      753.16357     -43.082058      710.08151    
    603000   304.96086      0.031564405    17.112102      756.6163      -43.91457       712.70173    
    604000   285.28986      0.031564405    15.777414      707.812       -42.498864      665.31314    
    605000   291.69422      0.031564405    16.443046      723.7014      -40.511588      683.18981    
    606000   308.76039      0.031564405    17.203057      766.04304     -42.263082      723.77996    
    607000   300.87397      0.031564405    16.835445      746.47661     -42.238212      704.2384     
    608000   291.99305      0.031564405    18.862457      724.4428      -46.312966      678.12984    
    609000   294.27657      0.031564405    15.898452      730.10829     -40.964547      689.14374    
    610000   307.45866      0.031564405    15.697007      762.81341     -43.009826      719.80358    
    611000   321.28299      0.031564405    19.306522      797.11195     -49.960806      747.15114    
    612000   299.59544      0.031564405    19.342939      743.30454     -45.926995      697.37755    
    613000   297.39276      0.031564405    14.72039       737.83963     -42.761978      695.07765    
    614000   307.90244      0.031564405    16.285892      763.91443     -41.737178      722.17726    
    615000   298.58581      0.031564405    10.540451      740.79961     -46.065191      694.73442    
    616000   282.32793      0.031564405    12.547588      700.46338     -38.722337      661.74104    
    617000   299.01773      0.031564405   -1.1538054      741.87124     -47.90184       693.9694     
    618000   313.78771      0.031564405    13.679796      778.51597     -48.38108       730.13489    
    619000   310.0729       0.031564405    17.691857      769.29941     -50.532501      718.76691    
    620000   297.69997      0.031564405    18.869841      738.60183     -47.753333      690.8485     
    621000   291.62137      0.031564405    17.302136      723.52066     -50.756086      672.76457    
    622000   302.23256      0.031564405    13.834371      749.84732     -51.096838      698.75048    
    623000   299.19491      0.031564405    18.23978       742.31082     -53.312538      688.99828    
    624000   295.11563      0.031564405    15.8749        732.19002     -50.935462      681.25456    
    625000   301.76289      0.031564405    15.051174      748.68206     -49.881805      698.80025    
    626000   304.63679      0.031564405    16.414103      755.81228     -51.828107      703.98417    
    627000   295.52359      0.031564405    17.96458       733.20218     -43.252505      689.94967    
    628000   287.49232      0.031564405    15.178014      713.27638     -42.748108      670.52827    
    629000   304.42419      0.031564405    15.993207      755.28482     -42.64328       712.64154    
    630000   304.57517      0.031564405    18.625651      755.6594      -43.032721      712.62668    
    631000   292.84689      0.031564405    19.771749      726.56121     -44.07052       682.49069    
    632000   297.25945      0.031564405    15.740778      737.50889     -48.978039      688.53086    
    633000   300.63803      0.031564405    13.707097      745.89123     -44.631225      701.26       
    634000   306.56019      0.031564405    17.958933      760.58428     -41.856225      718.72806    
    635000   291.9287       0.031564405    15.986448      724.28316     -50.235278      674.04788    
    636000   303.24646      0.031564405    17.979711      752.36282     -41.454758      710.90806    
    637000   312.36106      0.031564405    16.059948      774.97641     -44.654178      730.32223    
    638000   291.59292      0.031564405    19.712865      723.45007     -39.31438       684.13569    
    639000   300.37501      0.031564405    15.241319      745.23868     -41.153186      704.0855     
    640000   299.61775      0.031564405    16.264238      743.3599      -41.759808      701.6001     
    641000   294.60545      0.031564405    13.969402      730.92423     -40.557992      690.36624    
    642000   301.44896      0.031564405    18.344999      747.90317     -48.608063      699.29511    
    643000   290.13102      0.031564405    15.621832      719.82307     -43.224745      676.59832    
    644000   302.0456       0.031564405    12.975745      749.38345     -46.186282      703.19717    
    645000   279.76672      0.031564405    15.997377      694.10895     -47.857455      646.25149    
    646000   304.19171      0.031564405    16.662107      754.70802     -42.515287      712.19274    
    647000   302.73551      0.031564405    17.625274      751.09513     -39.692918      711.40221    
    648000   291.97556      0.031564405    14.993738      724.39942     -42.974135      681.42529    
    649000   292.5784       0.031564405    16.59658       725.89508     -41.850852      684.04422    
    650000   294.53947      0.031564405    20.38109       730.76054     -40.57516       690.18538    
    651000   312.17683      0.031564405    18.703902      774.51932     -39.243497      735.27582    
    652000   301.52569      0.031564405    7.6974869      748.09356     -39.76635       708.32721    
    653000   291.962        0.031564405    13.505416      724.36578     -41.678422      682.68736    
    654000   295.17565      0.031564405    18.030988      732.33894     -42.800089      689.53885    
    655000   319.36796      0.031564405    20.73457       792.36072     -47.755983      744.60473    
    656000   320.70767      0.031564405    5.9496842      795.68456     -45.584727      750.09984    
    657000   301.98731      0.031564405    14.739072      749.23884     -47.393042      701.8458     
    658000   289.67587      0.031564405    20.313546      718.69383     -47.913903      670.77992    
    659000   312.904        0.031564405    20.945711      776.32345     -48.286742      728.03671    
    660000   308.67148      0.031564405    10.034644      765.82245     -46.191498      719.63095    
    661000   281.69607      0.031564405    18.976378      698.89573     -50.571984      648.32374    
    662000   291.56569      0.031564405    18.292488      723.38251     -52.743197      670.63931    
    663000   311.9047       0.031564405    21.677983      773.84416     -49.487965      724.3562     
    664000   303.80792      0.031564405    17.065713      753.75583     -49.530552      704.22528    
    665000   289.89501      0.031564405    17.18255       719.23752     -49.212117      670.0254     
    666000   291.89103      0.031564405    8.174504       724.1897      -57.537226      666.65247    
    667000   303.69345      0.031564405    12.556128      753.47182     -51.583216      701.8886     
    668000   295.52938      0.031564405    20.271086      733.21655     -50.706902      682.50965    
    669000   291.56347      0.031564405    14.631282      723.37701     -49.527451      673.84956    
    670000   302.55915      0.031564405    20.312912      750.65759     -54.188171      696.46941    
    671000   305.97507      0.031564405    15.872046      759.13259     -47.552821      711.57977    
    672000   289.92683      0.031564405    22.095703      719.31647     -53.404502      665.91196    
    673000   298.14961      0.031564405    16.491227      739.71741     -55.634955      684.08246    
    674000   314.24373      0.031564405    17.138403      779.64736     -49.659636      729.98773    
    675000   295.73082      0.031564405    14.156448      733.71632     -53.135401      680.58091    
    676000   294.03472      0.031564405    25.544249      729.50826     -48.930333      680.57792    
    677000   301.90988      0.031564405    21.138736      749.04675     -52.376769      696.66998    
    678000   311.93105      0.031564405    13.219296      773.90953     -57.718778      716.19075    
    679000   296.05273      0.031564405    17.49156       734.51497     -56.637971      677.877      
    680000   297.40698      0.031564405    20.680975      737.87491     -55.625738      682.24917    
    681000   300.17108      0.031564405    14.192438      744.73271     -59.802849      684.92987    
    682000   305.11214      0.031564405    16.066856      756.99164     -59.313466      697.67817    
    683000   303.40301      0.031564405    16.185733      752.75123     -63.223134      689.52809    
    684000   289.35346      0.031564405    15.654855      717.89392     -63.018379      654.87554    
    685000   302.77236      0.031564405    19.173323      751.18656     -57.514613      693.67195    
    686000   319.49185      0.031564405    20.154783      792.6681      -58.186248      734.48185    
    687000   306.22404      0.031564405    18.862837      759.75028     -54.347568      705.40271    
    688000   288.6855       0.031564405    13.000753      716.23668     -60.612793      655.62389    
    689000   298.73989      0.031564405    14.783847      741.18191     -63.551205      677.6307     
    690000   309.83514      0.031564405    16.426426      768.70953     -62.272552      706.43697    
    691000   304.28865      0.031564405    20.14211       754.94853     -56.489748      698.45878    
    692000   296.2538       0.031564405    14.252015      735.01384     -55.211887      679.80195    
    693000   307.08524      0.031564405    17.768154      761.88693     -52.106183      709.78075    
    694000   305.5798       0.031564405    19.029572      758.15191     -49.883518      708.26839    
    695000   298.58106      0.031564405    16.671333      740.78785     -47.694383      693.09347    
    696000   294.33206      0.031564405    16.79192       730.24594     -53.054933      677.19101    
    697000   308.58401      0.031564405    16.971745      765.60543     -45.870845      719.73458    
    698000   310.79943      0.031564405    12.593359      771.10194     -51.798507      719.30343    
    699000   305.76194      0.031564405    16.846628      758.60379     -55.277605      703.32619    
    700000   292.7532       0.031564405    18.377678      726.32875     -48.073006      678.25574    
    701000   291.81333      0.031564405    12.748603      723.99692     -48.748126      675.24879    
    702000   310.70183      0.031564405    16.670966      770.8598      -52.81131       718.04849    
    703000   307.70265      0.031564405    15.582312      763.41876     -51.476626      711.94214    
    704000   290.91122      0.031564405    15.576344      721.75874     -48.44782       673.31092    
    705000   306.37522      0.031564405    17.790878      760.12536     -39.978841      720.14652    
    706000   302.54989      0.031564405    15.393747      750.63461     -46.82306       703.81155    
    707000   302.54297      0.031564405    19.925722      750.61744     -47.823062      702.79438    
    708000   299.4897       0.031564405    16.105991      743.0422      -51.565273      691.47693    
    709000   301.49986      0.031564405    14.895795      748.02947     -45.206962      702.82251    
    710000   290.23041      0.031564405    16.828151      720.06965     -51.462268      668.60738    
    711000   304.39649      0.031564405    16.242614      755.21608     -53.667078      701.549      
    712000   303.42549      0.031564405    12.334485      752.80701     -49.124952      703.68206    
    713000   282.20994      0.031564405    17.30294       700.17064     -48.800398      651.37024    
    714000   302.07537      0.031564405    22.151615      749.45731     -50.347265      699.11005    
    715000   306.33825      0.031564405    15.544025      760.03365     -48.598208      711.43544    
    716000   289.82444      0.031564405    3.3591611      719.06242     -43.148106      675.91431    
    717000   292.21516      0.031564405    20.012743      724.99386     -51.460411      673.53345    
    718000   295.05411      0.031564405    17.807674      732.03737     -46.682284      685.35509    
    719000   317.61188      0.031564405    22.870424      788.00383     -45.585131      742.4187     
    720000   311.61162      0.031564405    7.6113955      773.11703     -51.482651      721.63438    
    721000   290.67982      0.031564405    2.3182765      721.18464     -45.318287      675.86635    
    722000   284.94578      0.031564405    13.835555      706.95832     -47.61872       659.3396     
    723000   299.06658      0.031564405    33.765177      741.99243     -48.89393       693.0985     
    724000   308.78754      0.031564405    14.920022      766.11039     -45.706785      720.40361    
[...]
   3823000   319.49938      0.031564405    19.476729      792.68677     -54.783495      737.90327    
   3824000   291.63587      0.031564405    20.721999      723.55663     -52.47855       671.07808    
   3825000   289.45078      0.031564405    17.949059      718.13536     -46.311149      671.82421    
   3826000   290.59076      0.031564405    5.8883339      720.96369     -47.809739      673.15395    
   3827000   322.97685      0.031564405    11.595673      801.31447     -47.604245      753.71023    
   3828000   306.51132      0.031564405    18.140032      760.46303     -42.879933      717.58309    
   3829000   292.04104      0.031564405    20.482559      724.56187     -49.158066      675.40381    
   3830000   290.76298      0.031564405    16.443237      721.39098     -53.105152      668.28582    
   3831000   318.2498       0.031564405    16.658863      789.58651     -50.789886      738.79663    
   3832000   312.39733      0.031564405    18.286574      775.0664      -52.504736      722.56166    
   3833000   289.44852      0.031564405    17.740998      718.12976     -49.491025      668.63873    
   3834000   296.75358      0.031564405    10.684533      736.25382     -41.886402      694.36741    
   3835000   302.91236      0.031564405    25.389053      751.53391     -58.255468      693.27844    
   3836000   295.98773      0.031564405    12.389404      734.35372     -49.47113       684.88259    
   3837000   294.64685      0.031564405    15.219519      731.02697     -51.135865      679.8911     
   3838000   298.8986       0.031564405    16.897142      741.57567     -53.146988      688.42868    
   3839000   307.29141      0.031564405    32.183925      762.39847     -47.770647      714.62782    
   3840000   291.43074      0.031564405    12.906069      723.0477      -50.385935      672.66176    
   3841000   280.33554      0.031564405    14.378898      695.52021     -50.61502       644.90519    
   3842000   308.4804       0.031564405    11.916632      765.34838     -56.031521      709.31686    
   3843000   302.32183      0.031564405    16.688971      750.06879     -55.820644      694.24814    
   3844000   301.31069      0.031564405    17.374103      747.56013     -58.09435       689.46578    
   3845000   293.80736      0.031564405    16.625549      728.94415     -60.182597      668.76156    
   3846000   309.83212      0.031564405    11.66811       768.70204     -62.517485      706.18455    
   3847000   305.40681      0.031564405    16.056007      757.72271     -62.175434      695.54727    
   3848000   303.69651      0.031564405    18.710856      753.47942     -63.071409      690.40801    
   3849000   295.74905      0.031564405    16.462384      733.76155     -54.921939      678.83961    
   3850000   310.41466      0.031564405    13.863525      770.14732     -54.024381      716.12294    
   3851000   307.44811      0.031564405    15.320623      762.78723     -58.075137      704.7121     
   3852000   304.46558      0.031564405    15.710517      755.3875      -50.791397      704.59611    
   3853000   289.12257      0.031564405    14.044141      717.32108     -49.172016      668.14906    
   3854000   300.47465      0.031564405    17.084054      745.48589     -54.008543      691.47735    
   3855000   298.4091       0.031564405    20.076776      740.36121     -53.282637      687.07857    
   3856000   298.60556      0.031564405    17.342564      740.84863     -58.271807      682.57682    
   3857000   300.21339      0.031564405    12.711561      744.83768     -61.827314      683.01037    
   3858000   302.72387      0.031564405    18.83281       751.06626     -57.179326      693.88694    
   3859000   303.7407       0.031564405    17.076258      753.58904     -57.239419      696.34962    
   3860000   283.67447      0.031564405    8.9226283      703.80417     -56.269362      647.53481    
   3861000   287.64664      0.031564405    21.832227      713.65925     -49.377278      664.28198    
   3862000   310.96376      0.031564405    22.923467      771.50967     -50.962601      720.54707    
   3863000   312.13674      0.031564405    15.114493      774.41985     -51.06492       723.35493    
   3864000   285.49106      0.031564405    8.8009883      708.3112      -46.75999       661.55121    
   3865000   300.31781      0.031564405    28.45902       745.09677     -46.547015      698.54975    
   3866000   305.06798      0.031564405    19.787996      756.88206     -53.272831      703.60923    
   3867000   297.57487      0.031564405    15.178251      738.29146     -50.96682       687.32464    
   3868000   293.5253       0.031564405    15.13963       728.24436     -50.327011      677.91735    
   3869000   314.67191      0.031564405    31.172729      780.70969     -55.384017      725.32567    
   3870000   310.83839      0.031564405    12.162456      771.19861     -49.152668      722.04594    
   3871000   305.78131      0.031564405    1.6119733      758.65187     -54.494201      704.15767    
   3872000   294.67483      0.031564405    7.1537973      731.09637     -53.76885       677.32752    
   3873000   294.16288      0.031564405    7.7103694      729.82622     -48.571538      681.25468    
   3874000   287.2289       0.031564405    10.514713      712.62281     -54.843182      657.77963    
   3875000   309.1682       0.031564405    17.734557      767.05483     -61.205419      705.84942    
   3876000   311.78736      0.031564405    22.645199      773.55303     -60.296869      713.25616    
   3877000   295.88188      0.031564405    10.747867      734.09111     -60.977403      673.11371    
   3878000   296.85557      0.031564405    4.5537832      736.50685     -53.016288      683.49056    
   3879000   297.02492      0.031564405    25.194925      736.92702     -55.82532       681.1017     
   3880000   307.78376      0.031564405    20.211774      763.62        -59.613115      704.00688    
   3881000   302.90957      0.031564405    6.2633475      751.52698     -51.630164      699.89682    
   3882000   291.97817      0.031564405    24.464477      724.40588     -53.585148      670.82073    
   3883000   311.38601      0.031564405    21.676735      772.55727     -51.59055       720.96672    
   3884000   298.97821      0.031564405    14.849281      741.77319     -50.470978      691.30221    
   3885000   290.36554      0.031564405    9.8667107      720.40491     -53.060847      667.34407    
   3886000   291.60608      0.031564405    16.534698      723.48272     -52.344701      671.13802    
   3887000   304.49477      0.031564405    21.673275      755.45992     -60.755135      694.70479    
   3888000   295.67379      0.031564405    16.647044      733.57482     -56.41813       677.15669    
   3889000   299.65502      0.031564405    20.511382      743.45237     -50.682824      692.76954    
   3890000   317.59804      0.031564405    6.4224362      787.96949     -56.767187      731.20231    
   3891000   292.81913      0.031564405    11.780867      726.49234     -55.273245      671.21909    
   3892000   292.88098      0.031564405    16.398947      726.64577     -55.355245      671.29053    
   3893000   304.42949      0.031564405    29.627934      755.29797     -56.709999      698.58797    
   3894000   304.31103      0.031564405    22.160902      755.00405     -57.57382       697.43023    
   3895000   303.03438      0.031564405    12.090033      751.83665     -52.620404      699.21624    
   3896000   301.47088      0.031564405    12.06783       747.95756     -53.939819      694.01774    
   3897000   298.82516      0.031564405    18.565562      741.39347     -52.452892      688.94058    
   3898000   293.11678      0.031564405    10.329602      727.23082     -50.587076      676.64375    
   3899000   297.86479      0.031564405    12.023413      739.01075     -52.545146      686.46561    
   3900000   309.44616      0.031564405    28.290904      767.74446     -54.546198      713.19826    
   3901000   290.60248      0.031564405    20.288926      720.99277     -52.635484      668.35728    
   3902000   301.81259      0.031564405    11.526242      748.80536     -56.734888      692.07047    
   3903000   299.14753      0.031564405    11.746135      742.19326     -53.289137      688.90412    
   3904000   304.00029      0.031564405    25.587123      754.23309     -50.197643      704.03545    
   3905000   297.84002      0.031564405    13.533442      738.94929     -52.903023      686.04627    
   3906000   313.21472      0.031564405    18.495024      777.09436     -56.97256       720.1218     
   3907000   298.85586      0.031564405    32.636558      741.46963     -58.616775      682.85286    
   3908000   297.15502      0.031564405    11.059644      737.2498      -60.136107      677.11369    
   3909000   312.63427      0.031564405    10.396295      775.65424     -61.479395      714.17485    
   3910000   300.39374      0.031564405    43.540809      745.28514     -57.239134      688.04601    
   3911000   288.22817      0.031564405    11.545012      715.10204     -56.301284      658.80076    
   3912000   312.62356      0.031564405    11.732031      775.62766     -49.649169      725.97849    
   3913000   321.01839      0.031564405    20.942539      796.45547     -52.693613      743.76185    
   3914000   285.0612       0.031564405    13.030978      707.24469     -57.060185      650.18451    
   3915000   294.2222       0.031564405    16.121667      729.9734      -64.21372       665.75968    
   3916000   312.22563      0.031564405    17.783553      774.64039     -59.079981      715.56041    
   3917000   300.8421       0.031564405    16.284579      746.39755     -60.96283       685.43472    
   3918000   289.67915      0.031564405    13.26607       718.70195     -59.661061      659.04089    
   3919000   300.63249      0.031564405    13.887453      745.87749     -54.97622       690.90127    
   3920000   318.98628      0.031564405    20.88919       791.41375     -61.533823      729.87992    
   3921000   294.55549      0.031564405    17.215516      730.80029     -60.133185      670.6671     
   3922000   295.79815      0.031564405    14.928741      733.88337     -58.443835      675.43953    
   3923000   313.54593      0.031564405    15.438949      777.9161      -56.453209      721.4629     
   3924000   305.97718      0.031564405    25.223392      759.13781     -54.817299      704.32052    
   3925000   285.89186      0.031564405    14.391982      709.30557     -53.635541      655.67003    
   3926000   297.62338      0.031564405    15.660758      738.41182     -55.003585      683.40824    
   3927000   305.72943      0.031564405    15.913566      758.52315     -56.763421      701.75972    
   3928000   282.75352      0.031564405    14.573746      701.51928     -49.915492      651.60379    
   3929000   296.14165      0.031564405    17.173249      734.7356      -46.733953      688.00165    
   3930000   303.66934      0.031564405    15.452008      753.412       -48.424849      704.98715    
   3931000   305.92515      0.031564405    9.6973829      759.00872     -53.353315      705.6554     
   3932000   297.2989       0.031564405    28.908501      737.60677     -48.850221      688.75655    
   3933000   304.91915      0.031564405    39.663334      756.51282     -48.294488      708.21834    
   3934000   309.22907      0.031564405    10.329419      767.20586     -48.406738      718.79912    
   3935000   298.00565      0.031564405    15.461698      739.36022     -60.059319      679.30091    
   3936000   286.49002      0.031564405    18.154988      710.78964     -51.755848      659.03379    
   3937000   296.57615      0.031564405    25.62501       735.8136      -57.303683      678.50991    
   3938000   313.2927       0.031564405    22.327273      777.28782     -62.125943      715.16187    
   3939000   308.16503      0.031564405   -0.39267299     764.56594     -57.394114      707.17183    
   3940000   301.69114      0.031564405    15.524416      748.50402     -56.803876      691.70015    
   3941000   300.79597      0.031564405    31.784473      746.2831      -51.835531      694.44757    
   3942000   304.02415      0.031564405    16.068931      754.2923      -59.762989      694.52931    
   3943000   308.50169      0.031564405    8.706682       765.40119     -63.09741       702.30378    
   3944000   294.56618      0.031564405    12.827568      730.82681     -62.429507      668.3973     
   3945000   308.22147      0.031564405    24.740761      764.70596     -57.287549      707.41841    
   3946000   303.04349      0.031564405    2.0233904      751.85925     -61.686992      690.17226    
   3947000   285.76018      0.031564405    18.742757      708.97889     -52.704298      656.27459    
   3948000   311.80329      0.031564405    19.901057      773.59257     -50.445972      723.1466     
   3949000   301.87229      0.031564405    5.0729322      748.95346     -56.758948      692.19451    
   3950000   286.985        0.031564405    18.062339      712.0177      -54.477686      657.54002    
   3951000   305.04875      0.031564405    19.285637      756.83435     -51.764191      705.07016    
   3952000   304.4678       0.031564405    13.05625       755.39302     -54.94879       700.44423    
   3953000   300.89732      0.031564405    16.082239      746.53455     -55.575079      690.95947    
   3954000   294.73476      0.031564405    18.257758      731.24507     -47.19608       684.04899    
   3955000   304.62571      0.031564405    15.845248      755.78479     -46.354226      709.43056    
   3956000   303.01425      0.031564405    11.400405      751.78671     -49.651535      702.13518    
   3957000   297.8837       0.031564405    24.159454      739.05768     -53.215992      685.84169    
   3958000   307.08247      0.031564405    18.856314      761.88007     -57.781829      704.09824    
   3959000   304.86436      0.031564405    13.334541      756.37689     -53.811017      702.56587    
   3960000   302.60264      0.031564405    14.002979      750.76548     -54.682929      696.08256    
   3961000   301.7225       0.031564405    22.21625       748.58183     -56.000335      692.5815     
   3962000   294.08238      0.031564405    7.4673333      729.62648     -58.785696      670.84079    
   3963000   296.0451       0.031564405    12.189885      734.49606     -64.301042      670.19502    
   3964000   300.34492      0.031564405    21.129587      745.16402     -60.970062      684.19396    
   3965000   309.26561      0.031564405    18.795337      767.29651     -56.709519      710.58699    
   3966000   278.33966      0.031564405    11.982105      690.56836     -56.663312      633.90505    
   3967000   296.04457      0.031564405    14.815926      734.49473     -59.355498      675.13923    
   3968000   318.44249      0.031564405    13.98904       790.0646      -54.676832      735.38776    
   3969000   315.48728      0.031564405    15.586252      782.73264     -65.816799      716.91584    
   3970000   288.59272      0.031564405    17.233725      716.0065      -61.842844      654.16365    
   3971000   292.25266      0.031564405    16.596615      725.0869      -58.777625      666.30928    
   3972000   290.95918      0.031564405    19.996219      721.87775     -66.782097      655.09565    
   3973000   309.90501      0.031564405    16.97354       768.88286     -64.22605       704.65681    
   3974000   297.34858      0.031564405    14.962478      737.73002     -60.167558      677.56246    
   3975000   290.20632      0.031564405    15.675247      720.00987     -58.168677      661.84119    
   3976000   309.58014      0.031564405    14.232404      768.07685     -56.778941      711.29791    
   3977000   305.93499      0.031564405    16.796863      759.03315     -58.655226      700.37793    
   3978000   282.58248      0.031564405    19.041713      701.09492     -54.777588      646.31733    
   3979000   293.47549      0.031564405    17.016636      728.12078     -54.073337      674.04744    
   3980000   306.43693      0.031564405    16.135069      760.27847     -57.026188      703.25228    
   3981000   298.02985      0.031564405    10.290527      739.42028     -61.753617      677.66667    
   3982000   291.88792      0.031564405    16.573848      724.18198     -62.517186      661.66479    
   3983000   306.66755      0.031564405    22.359659      760.85065     -61.777635      699.07301    
   3984000   307.15783      0.031564405    17.159207      762.06705     -62.027283      700.03977    
   3985000   303.85619      0.031564405    14.921737      753.87559     -63.884118      689.99147    
   3986000   285.86493      0.031564405    10.401305      709.23877     -59.302052      649.93671    
   3987000   299.13032      0.031564405    10.382641      742.15057     -56.247304      685.90327    
   3988000   309.63491      0.031564405    13.565575      768.21274     -55.015137      713.1976     
   3989000   305.80024      0.031564405    20.406491      758.69883     -59.326389      699.37244    
   3990000   295.57581      0.031564405    16.155497      733.33173     -56.75187       676.57986    
   3991000   292.69982      0.031564405   -3.0774726      726.19632     -56.744497      669.45182    
   3992000   309.54713      0.031564405    13.985229      767.99496     -62.966022      705.02894    
   3993000   288.30677      0.031564405    22.013027      715.29705     -60.919749      654.3773     
   3994000   293.57192      0.031564405    14.518116      728.36002     -57.662967      670.69705    
   3995000   303.54231      0.031564405    16.009738      753.09684     -64.100836      688.996      
   3996000   300.04148      0.031564405    26.533402      744.41119     -66.407646      678.00354    
   3997000   298.58038      0.031564405    1.0501254      740.78615     -62.290374      678.49578    
   3998000   297.44382      0.031564405    17.413567      737.96631     -58.718429      679.24788    
   3999000   304.60442      0.031564405    19.876041      755.73197     -56.625553      699.10642    
   4000000   302.70224      0.031564405    15.614521      751.0126      -65.207717      685.80488    
Loop time of 5388.89 on 1 procs for 4000000 steps with 1500 atoms

Performance: 16.033 ns/day, 1.497 hours/ns, 742.268 timesteps/s, 1.113 Matom-step/s
100.0% CPU use with 1 MPI tasks x 1 OpenMP threads

MPI task timing breakdown:
Section |  min time  |  avg time  |  max time  |%varavg| %total
---------------------------------------------------------------
Pair    | 492.9      | 492.9      | 492.9      |   0.0 |  9.15
Bond    | 104.43     | 104.43     | 104.43     |   0.0 |  1.94
Kspace  | 4206.1     | 4206.1     | 4206.1     |   0.0 | 78.05
Neigh   | 0.03038    | 0.03038    | 0.03038    |   0.0 |  0.00
Comm    | 26.744     | 26.744     | 26.744     |   0.0 |  0.50
Output  | 0.10338    | 0.10338    | 0.10338    |   0.0 |  0.00
Modify  | 544.51     | 544.51     | 544.51     |   0.0 | 10.10
Other   |            | 14.1       |            |       |  0.26

Nlocal:           1500 ave        1500 max        1500 min
Histogram: 1 0 0 0 0 0 0 0 0 0
Nghost:           1638 ave        1638 max        1638 min
Histogram: 1 0 0 0 0 0 0 0 0 0
Neighs:              0 ave           0 max           0 min
Histogram: 1 0 0 0 0 0 0 0 0 0

Total # of neighbors = 0
Ave neighs/atom = 0
Ave special neighs/atom = 2
Neighbor list builds = 15491
Dangerous builds = 0
write_data	last_conf.data pair ij
System init for write_data ...
PPPM initialization ...
  using 12-bit tables for long-range coulomb (src/kspace.cpp:342)
  G vector (1/distance) = 0.17164655
  grid = 24 24 24
  stencil order = 5
  estimated absolute RMS force accuracy = 0.034360813
  estimated relative force accuracy = 0.00010347657
  using double precision FFTW3
  3d grid and FFT values/proc = 24389 13824
Generated 1 of 1 mixed pair_coeff terms from arithmetic mixing rule
Total wall time: 1:29:49
