LAMMPS data file via write_data, version 29 Aug 2024, timestep = 0, units = real

1500 atoms
2 atom types
1000 bonds
1 bond types
500 angles
1 angle types

0 120 xlo xhi
0 120 ylo yhi
0 120 zlo zhi

Masses

1 12.0107
2 15.9994

PairIJ Coeffs # lj/cut/coul/long/gpu

1 1 0.053649 2.8 12
1 2 0.0917684 2.925 12
2 2 0.156973 3.05 12

Bond Coeffs # harmonic

1 0 1.16

Angle Coeffs # harmonic

1 0 180

Atoms # full

1 1 1 0.7 8.84120056817364 34.05794929436313 11.953790361040173 0 0 0
2 1 2 -0.35 7.8335398239314245 34.295635319996684 11.430602844243616 0 0 0
3 1 2 -0.35 9.848861312415856 33.82026326872957 12.476977877836731 0 0 0
4 2 1 0.7 27.354598002207744 28.728623105552337 81.96853501813884 0 0 0
5 2 2 -0.35 27.70191785833733 29.22919019636455 80.98141724141009 0 0 0
6 2 2 -0.35 27.00727814607816 28.228056014740126 82.95565279486759 0 0 0
7 3 1 0.7 45.168049859426944 19.413987388561473 10.886039552691411 0 0 0
8 3 2 -0.35 44.70544100447397 18.350224173724964 10.885106772015378 0 0 0
9 3 2 -0.35 45.63065871437992 20.477750603397983 10.886972333367444 0 0 0
10 4 1 0.7 81.66676208454498 13.270354947666803 74.85560543595608 0 0 0
11 4 2 -0.35 80.58170276678598 13.469398885817965 75.21425259909785 0 0 0
12 4 2 -0.35 82.75182140230399 13.071311009515641 74.49695827281431 0 0 0
13 5 1 0.7 18.16056211393353 64.56744888078768 25.113339398574706 0 0 0
14 5 2 -0.35 17.987903338889108 64.85242733030792 26.22445425794308 0 0 0
15 5 2 -0.35 18.33322088897795 64.28247043126744 24.00222453920633 0 0 0
16 6 1 0.7 39.89527184511315 79.83390081666126 48.37102562578909 0 0 0
17 6 2 -0.35 38.807797660723736 80.00746046185151 48.00650272136742 0 0 0
18 6 2 -0.35 40.982746029502565 79.660341171471 48.73554853021076 0 0 0
19 7 1 0.7 91.82769263713978 28.03015240842018 102.7715283179523 0 0 0
20 7 2 -0.35 90.80632003757461 28.292828524667502 102.28841417946045 0 0 0
21 7 2 -0.35 92.84906523670494 27.767476292172855 103.25464245644416 0 0 0
22 8 1 0.7 1.0764398244565538 91.72412964130014 87.44688133124582 0 0 0
23 8 2 -0.35 0.6015464247268504 92.74156192312353 87.73827077991689 0 0 0
24 8 2 -0.35 1.5513332241862572 90.70669735947675 87.15549188257475 0 0 0
25 9 1 0.7 79.73453424858606 58.31711598593608 95.76837562758865 0 0 0
26 9 2 -0.35 79.39377724553728 59.0291345610898 94.91836726674197 0 0 0
27 9 2 -0.35 80.07529125163484 57.605097410782356 96.61838398843534 0 0 0
28 10 1 0.7 19.08917288253511 71.72863676758885 23.198152865841124 0 0 0
29 10 2 -0.35 19.095752192509455 70.7690947933716 23.84994724476404 0 0 0
30 10 2 -0.35 19.082593572560764 72.68817874180611 22.54635848691821 0 0 0
31 11 1 0.7 11.35521619178132 47.118535268641324 41.22226005477005 0 0 0
32 11 2 -0.35 10.960805220228774 47.08935718979366 42.31275930980589 0 0 0
33 11 2 -0.35 11.749627163333866 47.14771334748899 40.1317607997342 0 0 0
34 12 1 0.7 62.52474052017775 13.313922627509536 87.09760055276453 0 0 0
35 12 2 -0.35 61.605401741550985 13.997330918791123 87.28027325877348 0 0 0
36 12 2 -0.35 63.44407929880452 12.630514336227948 86.91492784675559 0 0 0
37 13 1 0.7 89.37249031354324 43.44469972115229 95.06821340651634 0 0 0
38 13 2 -0.35 89.45746049036538 42.29385716314382 94.95013938004423 0 0 0
39 13 2 -0.35 89.2875201367211 44.59554227916076 95.18628743298844 0 0 0
40 14 1 0.7 11.462723320099862 53.99084091838022 104.06331521648136 0 0 0
41 14 2 -0.35 10.761703914590804 53.65000897263572 104.92238761032237 0 0 0
42 14 2 -0.35 12.16374272560892 54.33167286412473 103.20424282264034 0 0 0
43 15 1 0.7 112.13884340233116 117.54106297974525 72.64550057828683 0 0 0
44 15 2 -0.35 111.35220632511736 117.54717794790545 71.79299561295412 0 0 0
45 15 2 -0.35 112.92548047954496 117.53494801158504 73.49800554361954 0 0 0
46 16 1 0.7 72.92821926666807 24.581214890154644 96.47865882910726 0 0 0
47 16 2 -0.35 71.77869196304717 24.431039566759097 96.43823172838141 0 0 0
48 16 2 -0.35 74.07774657028897 24.731390213550192 96.51908592983311 0 0 0
49 17 1 0.7 76.81894080565262 15.938120603532587 31.992983572181775 0 0 0
50 17 2 -0.35 75.84721433567532 16.509809373376527 32.26596638845376 0 0 0
51 17 2 -0.35 77.79066727562991 15.366431833688646 31.72000075590979 0 0 0
52 18 1 0.7 106.07489765904606 80.80495558716588 48.888553496863956 0 0 0
53 18 2 -0.35 105.25925912215759 81.42674104061082 48.346597200630846 0 0 0
54 18 2 -0.35 106.89053619593453 80.18317013372094 49.430509793097066 0 0 0
55 19 1 0.7 29.9186217924201 42.2764652046731 20.550694940868155 0 0 0
56 19 2 -0.35 29.738881153912114 42.58808380642771 19.447886185956747 0 0 0
57 19 2 -0.35 30.098362430928088 41.96484660291849 21.653503695779563 0 0 0
58 20 1 0.7 35.52987117112143 30.54477303779906 6.000446288846641 0 0 0
59 20 2 -0.35 36.450330297552306 30.48008116136952 6.703418519944092 0 0 0
60 20 2 -0.35 34.60941204469055 30.609464914228603 5.29747405774919 0 0 0
61 21 1 0.7 49.50077664549499 119.55308083424022 48.629581075454865 0 0 0
62 21 2 -0.35 50.31041331662404 118.82461034920645 49.02885443193853 0 0 0
63 21 2 -0.35 48.69113997436593 0.28155131927398713 48.230307718971204 0 1 0
64 22 1 0.7 117.36913516994991 63.054801348156666 42.046258469133754 0 0 0
65 22 2 -0.35 116.44383015742011 62.3704279462232 41.9011940678727 0 0 0
66 22 2 -0.35 118.29444018247972 63.73917475009013 42.191322870394806 0 0 0
67 23 1 0.7 111.46609073107415 90.58691716314615 54.31676099743543 0 0 0
68 23 2 -0.35 112.22872947632061 91.18662870353133 53.6808929194682 0 0 0
69 23 2 -0.35 110.70345198582768 89.98720562276098 54.95262907540266 0 0 0
70 24 1 0.7 61.80208389731221 107.62406212632735 77.61215718351872 0 0 0
71 24 2 -0.35 60.982646182152266 108.36393894065066 77.96811242031157 0 0 0
72 24 2 -0.35 62.62152161247215 106.88418531200404 77.25620194672587 0 0 0
73 25 1 0.7 27.525783398899147 25.841585297995053 39.52410340286983 0 0 0
74 25 2 -0.35 26.481962731970956 25.35821903936293 39.374452224092074 0 0 0
75 25 2 -0.35 28.56960406582734 26.324951556627177 39.67375458164758 0 0 0
76 26 1 0.7 81.60589203313268 70.22740086085508 111.92626839127684 0 0 0
77 26 2 -0.35 80.52482588971529 70.52430918587706 111.62837337606292 0 0 0
78 26 2 -0.35 82.68695817655006 69.93049253583311 112.22416340649075 0 0 0
79 27 1 0.7 24.792852189761053 53.466753314000904 55.722948413213224 0 0 0
80 27 2 -0.35 23.946167568696968 53.392516741527885 54.933509318817066 0 0 0
81 27 2 -0.35 25.63953681082514 53.54098988647392 56.51238750760938 0 0 0
82 28 1 0.7 55.59398087467718 48.036560699360706 110.47567415538974 0 0 0
83 28 2 -0.35 54.7636841453734 48.59111301177703 111.06616469223275 0 0 0
84 28 2 -0.35 56.42427760398096 47.48200838694438 109.88518361854673 0 0 0
85 29 1 0.7 4.6555296353323055 5.48658103006267 52.967372263300874 0 0 0
86 29 2 -0.35 3.4961569604907607 5.5113748542393575 52.996359624571895 0 0 0
87 29 2 -0.35 5.81490231017385 5.461787205885982 52.93838490202985 0 0 0
88 30 1 0.7 62.62562929774896 28.951607266884114 109.66333452130823 0 0 0
89 30 2 -0.35 61.70580380841265 29.000641578912585 108.95826948500937 0 0 0
90 30 2 -0.35 63.54545478708527 28.902572954855643 110.36839955760709 0 0 0
91 31 1 0.7 31.663299627445312 85.07683847335952 86.4242217533403 0 0 0
92 31 2 -0.35 31.975479769079268 84.09129646098157 85.89805590400434 0 0 0
93 31 2 -0.35 31.351119485811356 86.06238048573746 86.95038760267627 0 0 0
94 32 1 0.7 51.89500839072047 39.40602283897159 17.025854595483214 0 0 0
95 32 2 -0.35 51.103637116256365 38.55856809079529 16.991914121907868 0 0 0
96 32 2 -0.35 52.686379665184575 40.253477587147884 17.05979506905856 0 0 0
97 33 1 0.7 73.53818628636104 76.29691487005768 2.248221059445395 0 0 0
98 33 2 -0.35 72.39705477426936 76.13354910843195 2.3775674936436633 0 0 0
99 33 2 -0.35 74.67931779845271 76.4602806316834 2.1188746252471264 0 0 0
100 34 1 0.7 105.85134609874866 43.57388166877156 106.22920704364275 0 0 0
101 34 2 -0.35 104.85272847547067 43.521474049917735 105.6413156557447 0 0 0
102 34 2 -0.35 106.84996372202666 43.62628928762539 106.81709843154078 0 0 0
103 35 1 0.7 34.2827825035354 70.7255369195368 84.09900665474078 0 0 0
104 35 2 -0.35 33.13657094280954 70.9037390102011 84.0924436568538 0 0 0
105 35 2 -0.35 35.42899406426126 70.5473348288725 84.10556965262775 0 0 0
106 36 1 0.7 92.00484622828887 5.450558851217179 47.54261240714351 0 0 0
107 36 2 -0.35 91.02421343103238 4.895710657315938 47.81847976416395 0 0 0
108 36 2 -0.35 92.98547902554536 6.005407045118421 47.26674505012306 0 0 0
109 37 1 0.7 88.68672686102182 37.81835319372748 93.06212697786378 0 0 0
110 37 2 -0.35 87.52752019771788 37.815774189453094 93.01931038658574 0 0 0
111 37 2 -0.35 89.84593352432577 37.82093219800187 93.10494356914182 0 0 0
112 38 1 0.7 15.168116956561857 50.54168893515211 94.16593310151525 0 0 0
113 38 2 -0.35 15.211105065539561 51.1509711198581 93.17976514326148 0 0 0
114 38 2 -0.35 15.125128847584152 49.93240675044612 95.15210105976902 0 0 0
115 39 1 0.7 86.83763716688269 40.16786379747459 101.28684415541909 0 0 0
116 39 2 -0.35 86.04905030247927 39.45329280558071 100.82519596162408 0 0 0
117 39 2 -0.35 87.6262240312861 40.88243478936847 101.7484923492141 0 0 0
118 40 1 0.7 7.989720128471833 3.2261992260935712 102.73039295465237 0 0 0
119 40 2 -0.35 7.738041868980469 3.266780117005421 103.86203390698319 0 0 0
120 40 2 -0.35 8.241398387963198 3.1856183351817213 101.59875200232156 0 0 0
121 41 1 0.7 29.714388842561466 89.73327693051345 107.18537113963876 0 0 0
122 41 2 -0.35 29.1933564118214 90.48599820451652 106.47295560795779 0 0 0
123 41 2 -0.35 30.23542127330153 88.98055565651039 107.89778667131974 0 0 0
124 42 1 0.7 24.532743908712987 1.8268737391693861 104.26693421987207 0 0 0
125 42 2 -0.35 23.390123578571277 1.6603932560939734 104.37785324394738 0 0 0
126 42 2 -0.35 25.675364238854698 1.9933542222447989 104.15601519579675 0 0 0
127 43 1 0.7 54.363433390093704 6.224987304874224 103.36163302108721 0 0 0
128 43 2 -0.35 55.46849296210121 6.282753612042217 103.01362957847384 0 0 0
129 43 2 -0.35 53.2583738180862 6.167220997706231 103.70963646370059 0 0 0
130 44 1 0.7 78.96618541281958 104.67823325874201 7.06637967706955 0 0 0
131 44 2 -0.35 78.34540655716518 105.56055506545762 6.640067770402013 0 0 0
132 44 2 -0.35 79.58696426847399 103.7959114520264 7.492691583737088 0 0 0
133 45 1 0.7 84.6432325079307 118.80876079146226 18.842622106355908 0 0 0
134 45 2 -0.35 83.52126791852987 118.5767674740699 19.024211095052667 0 0 0
135 45 2 -0.35 85.76519709733154 119.04075410885463 18.661033117659148 0 0 0
136 46 1 0.7 7.94974152368947 51.305788648922835 96.38982244599136 0 0 0
137 46 2 -0.35 7.641992651241225 50.96305950459303 97.45444790366828 0 0 0
138 46 2 -0.35 8.257490396137715 51.64851779325264 95.32519698831443 0 0 0
139 47 1 0.7 23.745849776894715 96.4972002694836 28.44492921067631 0 0 0
140 47 2 -0.35 23.02223983914014 96.64546002954744 29.339360706951254 0 0 0
141 47 2 -0.35 24.46945971464929 96.34894050941976 27.550497714401367 0 0 0
142 48 1 0.7 113.92524383679276 21.57316497600319 60.18375168563042 0 0 0
143 48 2 -0.35 112.91519548949498 21.008187441454602 60.262509044501975 0 0 0
144 48 2 -0.35 114.93529218409054 22.13814251055178 60.10499432675886 0 0 0
145 49 1 0.7 28.314580390376307 83.15262105462729 26.10206512087121 0 0 0
146 49 2 -0.35 28.4947521615922 82.26188663808345 25.381141871113485 0 0 0
147 49 2 -0.35 28.134408619160414 84.04335547117113 26.822988370628934 0 0 0
148 50 1 0.7 97.40848648241185 104.43230989595517 73.83242131854986 0 0 0
149 50 2 -0.35 96.73869436702081 103.63968988070401 74.3508150237424 0 0 0
150 50 2 -0.35 98.07827859780288 105.22492991120633 73.31402761335733 0 0 0
151 51 1 0.7 101.50510086748055 76.23027974564128 82.31168499324083 0 0 0
152 51 2 -0.35 100.68119110081946 76.78521837169382 82.91069736182384 0 0 0
153 51 2 -0.35 102.32901063414164 75.67534111958875 81.71267262465783 0 0 0
154 52 1 0.7 52.48968139872406 74.07526835523325 103.03524640530127 0 0 0
155 52 2 -0.35 52.43853493941991 72.91642820512936 103.04382231387507 0 0 0
156 52 2 -0.35 52.54082785802821 75.23410850533713 103.02667049672746 0 0 0
157 53 1 0.7 113.38633389835542 84.11382965935107 101.13508471340643 0 0 0
158 53 2 -0.35 112.3466625369356 84.03598496687489 100.62653416125183 0 0 0
159 53 2 -0.35 114.42600525977524 84.19167435182725 101.64363526556103 0 0 0
160 54 1 0.7 97.36877822194657 37.05557625603657 113.07013520648243 0 0 0
161 54 2 -0.35 96.64856794675178 37.925044651611124 113.3364468070575 0 0 0
162 54 2 -0.35 98.08898849714136 36.18610786046201 112.80382360590737 0 0 0
163 55 1 0.7 49.76241535030418 76.91479256232958 66.91859507324108 0 0 0
164 55 2 -0.35 48.93917158876054 76.74787078184436 67.71859934090415 0 0 0
165 55 2 -0.35 50.585659111847825 77.0817143428148 66.11859080557801 0 0 0
166 56 1 0.7 60.82739596293653 46.04394907413234 100.65208894230987 0 0 0
167 56 2 -0.35 59.6883399773714 45.98907069801118 100.43962759151272 0 0 0
168 56 2 -0.35 61.96645194850166 46.0988274502535 100.86455029310703 0 0 0
169 57 1 0.7 19.658853402202414 46.349130815988936 69.8416243259989 0 0 0
170 57 2 -0.35 18.550511327217627 46.4168863065144 69.50608440539023 0 0 0
171 57 2 -0.35 20.7671954771872 46.28137532546347 70.17716424660756 0 0 0
172 58 1 0.7 108.1800470632408 62.05099188818176 91.02066467097991 0 0 0
173 58 2 -0.35 108.55309485523122 61.042337232324364 91.45546477460027 0 0 0
174 58 2 -0.35 107.80699927125039 63.05964654403916 90.58586456735955 0 0 0
175 59 1 0.7 24.31112515940849 117.08055417848777 12.874077843909188 0 0 0
176 59 2 -0.35 24.055088102187625 116.02378973837487 12.469981390766433 0 0 0
177 59 2 -0.35 24.567162216629356 118.13731861860067 13.278174297051942 0 0 0
178 60 1 0.7 14.626322581724413 64.60363104222512 33.22692667750033 0 0 0
179 60 2 -0.35 13.606514853964425 64.3383633471001 32.741926421496196 0 0 0
180 60 2 -0.35 15.6461303094844 64.86889873735014 33.711926933504465 0 0 0
181 61 1 0.7 84.95666874803447 106.73164821543341 78.81155678947064 0 0 0
182 61 2 -0.35 83.8862933417348 107.02633707652369 79.14779326092804 0 0 0
183 61 2 -0.35 86.02704415433415 106.43695935434313 78.47532031801325 0 0 0
184 62 1 0.7 25.834960632880666 48.183356825347694 57.678163618630805 0 0 0
185 62 2 -0.35 26.399013428383423 48.9944679427767 58.286064267642296 0 0 0
186 62 2 -0.35 25.27090783737791 47.37224570791869 57.070262969619314 0 0 0
187 63 1 0.7 36.89593832795319 70.03547790927601 6.277221202048111 0 0 0
188 63 2 -0.35 35.83206953068807 70.4606673195188 6.0955700318810635 0 0 0
189 63 2 -0.35 37.95980712521831 69.61028849903322 6.458872372215158 0 0 0
190 64 1 0.7 21.256742822591562 22.076619296370364 1.7405140966831305 0 0 0
191 64 2 -0.35 21.296990152263625 22.983758709388862 1.0186566053437924 0 0 0
192 64 2 -0.35 21.2164954929195 21.169479883351865 2.4623715880224686 0 0 0
193 65 1 0.7 92.82042295337675 32.84857740292725 86.04041099829618 0 0 0
194 65 2 -0.35 93.09043120565869 32.234771080251505 86.98695066568627 0 0 0
195 65 2 -0.35 92.55041470109481 33.46238372560299 85.0938713309061 0 0 0
196 66 1 0.7 81.18764836396447 0.8060531508205706 107.33530584133011 0 0 0
197 66 2 -0.35 80.44484096139324 1.0328807103519968 106.47368735213527 0 0 0
198 66 2 -0.35 81.9304557665357 0.5792255912891445 108.19692433052495 0 0 0
199 67 1 0.7 24.48527523525305 44.020878897989576 58.91163851083798 0 0 0
200 67 2 -0.35 24.08904973394246 43.02953405773015 58.45794174007342 0 0 0
201 67 2 -0.35 24.881500736563638 45.012223738249 59.36533528160254 0 0 0
202 68 1 0.7 7.908451653974341 77.34694834675032 10.16086383264552 0 0 0
203 68 2 -0.35 7.2537536953225255 78.01265137660184 9.472525210320963 0 0 0
204 68 2 -0.35 8.563149612626157 76.68124531689881 10.849202454970076 0 0 0
205 69 1 0.7 13.638435273262875 21.181637729137037 79.78531360616223 0 0 0
206 69 2 -0.35 12.536066504164769 21.237847880193794 80.14199766220526 0 0 0
207 69 2 -0.35 14.740804042360981 21.12542757808028 79.42862955011921 0 0 0
208 70 1 0.7 71.76577876869858 47.443765517065195 107.36704531468779 0 0 0
209 70 2 -0.35 70.65200839985346 47.5218818227649 107.0523813538241 0 0 0
210 70 2 -0.35 72.8795491375437 47.36564921136549 107.68170927555147 0 0 0
211 71 1 0.7 77.93060395770269 99.66071710906026 37.67245197560287 0 0 0
212 71 2 -0.35 78.97392512828515 99.22164111658061 37.92601302908401 0 0 0
213 71 2 -0.35 76.88728278712023 100.0997931015399 37.418890922121726 0 0 0
214 72 1 0.7 40.900353957386855 52.2489618008253 108.30098647079477 0 0 0
215 72 2 -0.35 39.74310948847913 52.2672446269487 108.37877449976719 0 0 0
216 72 2 -0.35 42.05759842629458 52.230678974701895 108.22319844182235 0 0 0
217 73 1 0.7 54.67961464760807 40.28338234884822 2.807137092019961 0 0 0
218 73 2 -0.35 54.62772750707559 41.377357121397374 3.189402604031434 0 0 0
219 73 2 -0.35 54.73150178814055 39.18940757629907 2.424871580008488 0 0 0
220 74 1 0.7 19.55310557948104 69.04547433790074 47.287197097804025 0 0 0
221 74 2 -0.35 18.403754834285706 69.1410895509633 47.162896673227394 0 0 0
222 74 2 -0.35 20.702456324676376 68.94985912483818 47.41149752238066 0 0 0
223 75 1 0.7 115.92162279222235 94.71426888122889 62.717086813746526 0 0 0
224 75 2 -0.35 115.3843329233574 94.02194497442402 61.95708207370767 0 0 0
225 75 2 -0.35 116.4589126610873 95.40659278803376 63.477091553785385 0 0 0
226 76 1 0.7 6.0780786378672715 34.26766663522817 56.67313827978128 0 0 0
227 76 2 -0.35 7.035492869793006 34.5963360048211 57.23964903342805 0 0 0
228 76 2 -0.35 5.120664405941537 33.93899726563524 56.1066275261345 0 0 0
229 77 1 0.7 65.43506828389832 87.1926474790986 6.826181210030886 0 0 0
230 77 2 -0.35 64.61553776525571 87.79815470085225 6.27180702825693 0 0 0
231 77 2 -0.35 66.25459880254093 86.58714025734494 7.380555391804842 0 0 0
232 78 1 0.7 7.627596989100612 37.022595813974085 38.767845462433925 0 0 0
233 78 2 -0.35 7.763549577646784 36.51533739844508 37.733531296649375 0 0 0
234 78 2 -0.35 7.491644400554439 37.529854229503094 39.802159628218476 0 0 0
235 79 1 0.7 91.1786871269246 40.194542221815574 69.67112205441627 0 0 0
236 79 2 -0.35 90.26575003783641 39.57072514739548 69.32041116346886 0 0 0
237 79 2 -0.35 92.09162421601279 40.81835929623567 70.02183294536368 0 0 0
238 80 1 0.7 2.5483685743754583 110.43062952832814 87.59048261101846 0 0 0
239 80 2 -0.35 3.4834779233064808 109.83751509737793 87.93600508111325 0 0 0
240 80 2 -0.35 1.6132592254444358 111.02374395927835 87.24496014092367 0 0 0
241 81 1 0.7 93.24124338721914 25.57760899214894 42.87433104723428 0 0 0
242 81 2 -0.35 92.49723965989828 26.413396311870628 43.180138192221285 0 0 0
243 81 2 -0.35 93.98524711454 24.74182167242725 42.56852390224727 0 0 0
244 82 1 0.7 108.8819108665371 98.27593388886933 43.620870226817615 0 0 0
245 82 2 -0.35 109.15730971433885 97.23623618853341 44.055363226238406 0 0 0
246 82 2 -0.35 108.60651201873534 99.31563158920525 43.186377227396825 0 0 0
247 83 1 0.7 55.965902123584364 58.91699108244711 97.8691226885976 0 0 0
248 83 2 -0.35 55.08262446186712 58.965615000222776 97.1187519222884 0 0 0
249 83 2 -0.35 56.84917978530161 58.86836716467145 98.6194934549068 0 0 0
250 84 1 0.7 46.34502725971166 0.8731539737773845 35.098837276501044 0 0 0
251 84 2 -0.35 47.49613366994384 0.7298186937299797 35.09583231125654 0 0 0
252 84 2 -0.35 45.193920849479476 1.0164892538247894 35.10184224174555 0 0 0
253 85 1 0.7 106.15810615297319 39.29011302035773 108.92953315234256 0 0 0
254 85 2 -0.35 107.06408376789263 38.61001321512227 108.67999594833564 0 0 0
255 85 2 -0.35 105.25212853805375 39.97021282559319 109.17907035634947 0 0 0
256 86 1 0.7 58.66369142134845 40.661718603531696 1.5045695572647124 0 0 0
257 86 2 -0.35 58.0283407656971 40.976858863162036 2.4225108196140637 0 0 0
258 86 2 -0.35 59.299042076999804 40.346578343901356 0.586628294915361 0 0 0
259 87 1 0.7 87.30054894802186 20.32616940342177 101.9291633097125 0 0 0
260 87 2 -0.35 86.9871135171487 19.81713057469369 102.92326476405229 0 0 0
261 87 2 -0.35 87.61398437889501 20.83520823214985 100.9350618553727 0 0 0
262 88 1 0.7 3.4477463380655955 106.27270386846396 45.333917273829655 0 0 0
263 88 2 -0.35 3.452397064564134 106.0138468379327 44.20317795440737 0 0 0
264 88 2 -0.35 3.443095611567057 106.53156089899522 46.46465659325194 0 0 0
265 89 1 0.7 47.14762125497108 50.07043229884954 93.75564676418698 0 0 0
266 89 2 -0.35 46.37152659486567 50.56309711897591 93.04814520689843 0 0 0
267 89 2 -0.35 47.923715915076485 49.57776747872317 94.46314832147553 0 0 0
268 90 1 0.7 31.15516569053529 64.86976082663506 66.07021325550517 0 0 0
269 90 2 -0.35 31.909303564775914 64.09400612554161 66.48863972499203 0 0 0
270 90 2 -0.35 30.40102781629467 65.6455155277285 65.6517867860183 0 0 0
271 91 1 0.7 82.07418527550725 20.831925450280274 82.17104286056527 0 0 0
272 91 2 -0.35 81.068167281891 20.633433067480794 81.62870664520536 0 0 0
273 91 2 -0.35 83.0802032691235 21.030417833079753 82.71337907592518 0 0 0
274 92 1 0.7 88.71735752034809 72.62784449040323 16.182350207205094 0 0 0
275 92 2 -0.35 87.83137782914604 72.33534708046105 16.871614490303113 0 0 0
276 92 2 -0.35 89.60333721155014 72.92034190034542 15.493085924107074 0 0 0
277 93 1 0.7 56.7599324960075 84.18546039806002 105.03291019472894 0 0 0
278 93 2 -0.35 55.60093647344864 84.1382720821709 105.04298404882189 0 0 0
279 93 2 -0.35 57.91892851856636 84.23264871394913 105.02283634063599 0 0 0
280 94 1 0.7 88.12164280941786 20.450697886036103 34.87937060877652 0 0 0
281 94 2 -0.35 88.21109786769001 19.78840063830178 35.827505698409354 0 0 0
282 94 2 -0.35 88.03218775114571 21.112995133770426 33.931235519143684 0 0 0
283 95 1 0.7 17.581821706882597 57.677427575773294 24.525266021734694 0 0 0
284 95 2 -0.35 16.43092993706627 57.53873379094504 24.567835590901606 0 0 0
285 95 2 -0.35 18.732713476698923 57.81612136060155 24.482696452567783 0 0 0
286 96 1 0.7 116.1460272949869 26.280746844727894 100.51221934171032 0 0 0
287 96 2 -0.35 115.52784651475517 26.615872763726088 101.43479353459007 0 0 0
288 96 2 -0.35 116.76420807521862 25.9456209257297 99.58964514883057 0 0 0
289 97 1 0.7 68.87047612521354 106.09223646395478 12.218249688026612 0 0 0
290 97 2 -0.35 68.86247847672303 106.55370415034716 11.15402057170143 0 0 0
291 97 2 -0.35 68.87847377370406 105.6307687775624 13.282478804351793 0 0 0
292 98 1 0.7 32.12250666326029 2.9694894156276668 108.20860845419048 0 0 0
293 98 2 -0.35 31.831056255201304 2.3857324753502636 109.16771454546517 0 0 0
294 98 2 -0.35 32.413957071319274 3.55324635590507 107.24950236291579 0 0 0
295 99 1 0.7 62.08228957936274 17.040960349627287 87.42059618580183 0 0 0
296 99 2 -0.35 60.98498796178452 16.76530854891485 87.16457813014125 0 0 0
297 99 2 -0.35 63.179591196940954 17.316612150339726 87.6766142414624 0 0 0
298 100 1 0.7 117.96009477132935 35.31282173251399 102.59485836261643 0 0 0
299 100 2 -0.35 117.69250425164816 36.42969525341278 102.43179747800005 0 0 0
300 100 2 -0.35 118.22768529101054 34.195948211615196 102.75791924723282 0 0 0
301 101 1 0.7 31.784500494498996 82.0998110445681 91.52422605619032 0 0 0
302 101 2 -0.35 30.913364391406578 82.00444307172427 90.76420839873451 0 0 0
303 101 2 -0.35 32.65563659759142 82.19517901741193 92.28424371364612 0 0 0
304 102 1 0.7 87.66732639058834 64.75464661827061 51.345713274248745 0 0 0
305 102 2 -0.35 88.76264682141522 65.13649564424689 51.33768363078149 0 0 0
306 102 2 -0.35 86.57200595976147 64.37279759229433 51.353742917716 0 0 0
307 103 1 0.7 47.40300029860949 22.22601872972493 112.69679048689864 0 0 0
308 103 2 -0.35 46.376897119246244 21.686340209831553 112.65858891014676 0 0 0
309 103 2 -0.35 48.42910347797274 22.76569724961831 112.73499206365051 0 0 0
310 104 1 0.7 14.957713305464813 114.28752494709917 110.43178589569023 0 0 0
311 104 2 -0.35 13.79811844741122 114.30936506253533 110.41027370069759 0 0 0
312 104 2 -0.35 16.117308163518405 114.26568483166301 110.45329809068286 0 0 0
313 105 1 0.7 107.02554886556489 98.39978354908516 85.16210947426134 0 0 0
314 105 2 -0.35 106.14560566613365 99.04584230058789 84.76979830263679 0 0 0
315 105 2 -0.35 107.90549206499612 97.75372479758242 85.5544206458859 0 0 0
316 106 1 0.7 79.57393391038009 119.10723175811917 115.24415870906978 0 0 0
317 106 2 -0.35 78.44390483691424 119.02865793993246 114.9942378251535 0 0 0
318 106 2 -0.35 80.70396298384594 119.18580557630588 115.49407959298605 0 0 0
319 107 1 0.7 108.57542333592447 107.14000688266941 102.09567702472941 0 0 0
320 107 2 -0.35 109.27441584910159 106.22252884236951 102.21914164350663 0 0 0
321 107 2 -0.35 107.87643082274735 108.05748492296931 101.97221240595219 0 0 0
322 108 1 0.7 42.04375462701719 69.384016277913 97.1615828839883 0 0 0
323 108 2 -0.35 43.194807431548014 69.42834286056437 97.29837687235094 0 0 0
324 108 2 -0.35 40.89270182248636 69.33968969526164 97.02478889562566 0 0 0
325 109 1 0.7 34.723531191574196 38.388736787433146 79.49918638891502 0 0 0
326 109 2 -0.35 33.575623530957394 38.489934253531096 79.36626883720487 0 0 0
327 109 2 -0.35 35.871438852191 38.287539321335196 79.63210394062517 0 0 0
328 110 1 0.7 62.82563849483879 30.506182755579328 77.41357302172742 0 0 0
329 110 2 -0.35 63.59688127241145 31.27139915567577 77.82005603375308 0 0 0
330 110 2 -0.35 62.05439571726613 29.740966355482886 77.00709000970176 0 0 0
331 111 1 0.7 49.921776172668565 115.292134040637 74.89682098612973 0 0 0
332 111 2 -0.35 49.0829244058783 115.5848921025659 75.64262285695634 0 0 0
333 111 2 -0.35 50.76062793945883 114.99937597870809 74.15101911530311 0 0 0
334 112 1 0.7 110.8703138823017 37.365419844801266 40.61133157490349 0 0 0
335 112 2 -0.35 109.99508362278482 36.65059940043694 40.87325470321555 0 0 0
336 112 2 -0.35 111.74554414181858 38.080240289165594 40.349408446591426 0 0 0
337 113 1 0.7 114.64977940295347 78.84242543896774 64.64435273066366 0 0 0
338 113 2 -0.35 113.65762823200798 79.41918735342293 64.81341410421025 0 0 0
339 113 2 -0.35 115.64193057389896 78.26566352451255 64.47529135711706 0 0 0
340 114 1 0.7 117.63634426409209 114.0380465956582 117.44913322732278 0 0 0
341 114 2 -0.35 116.55368669477157 113.77567731965806 117.12569088222224 0 0 0
342 114 2 -0.35 118.7190018334126 114.30041587165834 117.7725755724233 0 0 0
343 115 1 0.7 87.58215161393497 73.22217540499857 45.10203181072233 0 0 0
344 115 2 -0.35 88.4957764949541 73.35652185092458 44.40000573624232 0 0 0
345 115 2 -0.35 86.66852673291584 73.08782895907255 45.80405788520234 0 0 0
346 116 1 0.7 109.84864281017735 26.139710650844364 10.116908741238019 0 0 0
347 116 2 -0.35 110.07772207268582 25.064678305075844 9.746195716055444 0 0 0
348 116 2 -0.35 109.61956354766889 27.214742996612884 10.487621766420594 0 0 0
349 117 1 0.7 114.88521398738268 75.79148594094043 27.504209385953942 0 0 0
350 117 2 -0.35 115.07573794952555 75.67980377584435 26.365425950067717 0 0 0
351 117 2 -0.35 114.69469002523982 75.90316810603652 28.642992821840167 0 0 0
352 118 1 0.7 23.247149727888008 114.84547661377371 7.925447694922541 0 0 0
353 118 2 -0.35 22.0925578909867 114.91826901303114 8.01041213908136 0 0 0
354 118 2 -0.35 24.401741564789315 114.77268421451629 7.840483250763722 0 0 0
355 119 1 0.7 2.999408563133054 11.059720577234271 0.7237415764125723 0 0 0
356 119 2 -0.35 3.9965042869201732 11.486336874332181 1.1353222521687445 0 0 0
357 119 2 -0.35 2.0023128393459344 10.633104280136362 0.3121609006564 0 0 0
358 120 1 0.7 43.92467476610312 2.0087938951369346 41.79899556646077 0 0 0
359 120 2 -0.35 43.27262138039884 1.124371984865474 42.170780809340805 0 0 0
360 120 2 -0.35 44.576728151807394 2.893215805408395 41.42721032358073 0 0 0
361 121 1 0.7 35.718485506120366 80.58590136495692 87.2442408312318 0 0 0
362 121 2 -0.35 34.67314608254851 80.10511808854743 87.39159391281282 0 0 0
363 121 2 -0.35 36.76382492969222 81.06668464136642 87.09688774965079 0 0 0
364 122 1 0.7 33.95565051303974 92.61817265889522 113.62787805200921 0 0 0
365 122 2 -0.35 33.002507209012194 92.02793044789047 113.32999892495316 0 0 0
366 122 2 -0.35 34.90879381706729 93.20841486989997 113.92575717906526 0 0 0
367 123 1 0.7 63.74642011883968 26.082937338428078 15.9278469606898 0 0 0
368 123 2 -0.35 63.73742824316387 26.617318885997616 14.898305554145596 0 0 0
369 123 2 -0.35 63.75541199451549 25.54855579085854 16.957388367234003 0 0 0
370 124 1 0.7 99.32386831348943 16.2547448166901 73.49613411049178 0 0 0
371 124 2 -0.35 98.17179078551347 16.351884722568503 73.59037427294248 0 0 0
372 124 2 -0.35 100.47594584146539 16.157604910811695 73.40189394804108 0 0 0
373 125 1 0.7 89.52599503543507 103.39856055723436 99.6072854379226 0 0 0
374 125 2 -0.35 88.64702553859685 103.77825305416448 98.95242191671919 0 0 0
375 125 2 -0.35 90.4049645322733 103.01886806030424 100.26214895912601 0 0 0
376 126 1 0.7 99.64635516500397 36.2912582216278 107.17693089841721 0 0 0
377 126 2 -0.35 99.00222252806293 35.3957021827041 107.53564042878219 0 0 0
378 126 2 -0.35 100.290487801945 37.1868142605515 106.81822136805224 0 0 0
379 127 1 0.7 2.6776096982311506 2.586198170942347 26.232659028020066 0 0 0
380 127 2 -0.35 2.327147567900006 3.535981952298585 26.798951411755183 0 0 0
381 127 2 -0.35 3.028071828562295 1.636414389586109 25.66636664428495 0 0 0
382 128 1 0.7 12.300283933198212 90.87206526234377 46.80086421165656 0 0 0
383 128 2 -0.35 11.391845139581791 90.34804987337948 46.30513562625791 0 0 0
384 128 2 -0.35 13.208722726814633 91.39608065130805 47.29659279705521 0 0 0
385 129 1 0.7 102.12480531173051 51.602874254622904 49.50759744714368 0 0 0
386 129 2 -0.35 101.06430135177366 52.06768083779633 49.57749874294337 0 0 0
387 129 2 -0.35 103.18530927168736 51.13806767144948 49.43769615134399 0 0 0
388 130 1 0.7 114.19029414383243 36.27367539157797 51.66230625084709 0 0 0
389 130 2 -0.35 113.1204548163417 36.04747991664764 51.275163615019906 0 0 0
390 130 2 -0.35 115.26013347132316 36.499870866508296 52.04944888667427 0 0 0
391 131 1 0.7 88.38115798699722 62.12228746252241 89.28538261413824 0 0 0
392 131 2 -0.35 87.65113036177964 61.33293316338734 89.72078984519459 0 0 0
393 131 2 -0.35 89.11118561221481 62.91164176165748 88.8499753830819 0 0 0