LAMMPS data file via write_data, version 29 Aug 2024, timestep = 4000000, units = real

1500 atoms
2 atom types
1000 bonds
1 bond types
500 angles
1 angle types

0 120 xlo xhi
0 120 ylo yhi
0 120 zlo zhi

Masses

1 12.0107
2 15.9994

PairIJ Coeffs # lj/cut/coul/long/gpu

1 1 0.053649 2.8 12
1 2 0.0917684 2.925 12
2 2 0.156973 3.05 12

Bond Coeffs # harmonic

1 0 1.16

Angle Coeffs # harmonic

1 0 180

Atoms # full

79 27 1 0.7 20.2416682562396 1.769263076717968 2.4351318104834934 1 0 -2
80 27 2 -0.35 19.87342205385152 1.9496494327325204 3.5202380250962753 1 0 -2
81 27 2 -0.35 20.609914458627678 1.5888767207034153 1.350025595870711 1 0 -2
1141 381 1 0.7 28.277276041139707 15.135760880055516 12.61481300100768 -2 -4 -1
1142 381 2 -0.35 27.36035745612958 15.641228427859277 13.114175461130554 -2 -4 -1
1143 381 2 -0.35 29.19419462614983 14.630293332251755 12.115450540884808 -2 -4 -1
581 194 2 -0.35 48.64060140418737 9.710395628186209 14.606713761166212 3 3 -1
580 194 1 0.7 48.984967971081055 8.680705684220092 14.198363070093066 3 3 -1
582 194 2 -0.35 49.32933453797474 7.651015740253973 13.790012379019918 3 3 -1
386 129 2 -0.35 38.55577264335453 119.2065713682718 0.8342613211578727 0 -3 10
803 268 2 -0.35 56.361478317438454 11.484702299177032 5.366847824600027 -6 -7 1
804 268 2 -0.35 56.93148688548533 9.3273023454197 6.001761733631645 -6 -7 1
802 268 1 0.7 56.64648260146189 10.406002322298365 5.684304779115837 -6 -7 1
1057 353 1 0.7 61.09088982604632 4.673123905079844 11.629786659948257 1 0 2
1058 353 2 -0.35 61.92580030651705 3.9976401247416966 11.191327822541663 1 0 2
1059 353 2 -0.35 60.2559793455756 5.348607685417991 12.06824549735485 1 0 2
438 146 2 -0.35 78.30458224675635 9.447720123250004 16.513279509266365 2 -1 -1
436 146 1 0.7 77.2352459203964 9.083261790700131 16.250049676304577 2 -1 -1
437 146 2 -0.35 76.16590959403645 8.718803458150258 15.986819843342786 2 -1 -1
1194 398 2 -0.35 70.68549669303404 0.8366777532900238 0.05675095263577118 -3 1 -2
585 195 2 -0.35 115.19181550499317 1.5716283099706878 16.549743218601865 -2 0 2
583 195 1 0.7 114.40842497103935 1.2871870972475197 15.742902176130436 -2 0 2
584 195 2 -0.35 113.62503443708555 1.0027458845243515 14.936061133659006 -2 0 2
1347 449 2 -0.35 5.242649540805365 35.24782428536387 4.248076711763156 5 6 1
1345 449 1 0.7 4.7163545227997545 35.51106722088545 5.247735008842621 5 6 1
1089 363 2 -0.35 34.84339249214753 26.179308247747244 8.577045437388417 -1 5 2
1087 363 1 0.7 35.540283037227184 25.451247161580415 8.002701792009645 -1 5 2
1088 363 2 -0.35 36.23717358230684 24.723186075413583 7.428358146630876 -1 5 2
881 294 2 -0.35 58.197671435538396 29.080337350969902 8.161521096268844 1 -8 1
880 294 1 0.7 57.361432315385976 28.42550314116975 8.627886073088442 1 -8 1
882 294 2 -0.35 56.52519319523356 27.770668931369592 9.09425104990804 1 -8 1
131 44 2 -0.35 81.31575557890045 30.892430749309295 3.617822765787808 -5 0 2
130 44 1 0.7 80.30589089210002 30.364496793230558 3.4008917805145003 -5 0 2
132 44 2 -0.35 79.2960262052996 29.83656283715182 3.1839607952411924 -5 0 2
1346 449 2 -0.35 4.190059504794145 35.77431015640704 6.247393305922087 5 6 1
1452 484 2 -0.35 0.1994108622200711 44.09837079675721 12.410659270951836 -5 0 5
1450 484 1 0.7 0.8158517376070213 43.65333063724562 11.534565723679282 -5 0 5
1451 484 2 -0.35 1.4322926129939715 43.208290477734025 10.658472176406729 -5 0 5
1287 429 2 -0.35 8.685641957046164 38.24023416119934 4.040141065231995 -3 2 4
1285 429 1 0.7 9.22189250501318 39.268453617279306 4.0684271031951775 -3 2 4
1286 429 2 -0.35 9.758143052980195 40.296673073359266 4.096713141158361 -3 2 4
1409 470 2 -0.35 8.514119837168503 45.63234590249113 16.095569001717017 4 4 1
1408 470 1 0.7 8.618124796628118 46.51191265225037 15.346472678721044 4 4 1
1410 470 2 -0.35 8.722129756087735 47.391479402009615 14.597376355725071 4 4 1
1172 391 2 -0.35 27.213813276281154 44.32578500200262 8.408578006776692 1 5 0
1171 391 1 0.7 26.320584305090208 44.50702643033863 9.126138840213102 1 5 0
1173 391 2 -0.35 25.427355333899257 44.68826785867463 9.843699673649514 1 5 0
747 249 2 -0.35 46.42495959730076 41.36644968759413 15.097823578673001 0 6 -3
640 214 1 0.7 39.62877579454995 40.958145338840374 10.641085798247888 -2 -6 -2
641 214 2 -0.35 38.70877718538394 40.353230738763315 10.276009250458124 -2 -6 -2
642 214 2 -0.35 40.54877440371597 41.563059938917434 11.006162346037652 -2 -6 -2
745 249 1 0.7 46.39125695028103 42.40652054456181 14.585264563466119 0 6 -3
746 249 2 -0.35 46.357554303261296 43.446591401529496 14.072705548259234 0 6 -3
833 278 2 -0.35 59.34657469170382 46.213358569970254 0.06443366400400428 3 2 -5
832 278 1 0.7 60.48963419673998 46.042670276084266 0.1638342388325722 3 2 -5
1145 382 2 -0.35 83.18717835187947 37.125617807770546 11.597122437578648 0 4 -3
1146 382 2 -0.35 81.83591704215503 35.58501225166806 10.509451810345093 0 4 -3
1144 382 1 0.7 82.51154769701725 36.35531502971931 11.053287123961871 0 4 -3
1277 426 2 -0.35 69.46092990146381 47.56498848326209 11.475929684268026 8 5 -4
1276 426 1 0.7 70.0162301962582 48.48054334010479 11.029834529942912 8 5 -4
1278 426 2 -0.35 70.57153049105258 49.396098196947484 10.5837393756178 8 5 -4
1131 377 2 -0.35 77.9039509104086 38.962792981420705 10.555408878666983 0 3 -1
1129 377 1 0.7 78.53485228502024 38.00464074873334 10.727187091801769 0 3 -1
1130 377 2 -0.35 79.16575365963186 37.04648851604597 10.898965304936556 0 3 -1
69 23 2 -0.35 93.02922393897686 47.655748141554085 3.59791343330825 -4 -4 1
67 23 1 0.7 92.64561994661398 46.568890076132796 3.4668122408140585 -4 -4 1
68 23 2 -0.35 92.26201595425108 45.48203201071151 3.3357110483198675 -4 -4 1
719 240 2 -0.35 87.70862215511497 36.29712346105848 11.454971525913624 8 1 14
718 240 1 0.7 88.6181048896659 35.915965775566534 10.844103312348846 8 1 14
720 240 2 -0.35 89.52758762421684 35.53480809007458 10.23323509878407 8 1 14
396 132 2 -0.35 115.17755828992102 45.85724868168913 1.6476079225894646 -3 5 -1
395 132 2 -0.35 116.18668167913299 44.75655980075672 119.87206463313349 -3 5 -2
394 132 1 0.7 115.682119984527 45.306904241222924 0.7598362778614806 -3 5 -1
965 322 2 -0.35 6.194096816353048 51.61670810676903 0.8413830145855155 3 -4 1
964 322 1 0.7 5.9667275335505625 52.73862917111172 0.653776152712792 3 -4 1
966 322 2 -0.35 5.739358250748078 53.86055023545441 0.46616929084006864 3 -4 1
55 19 1 0.7 11.658577589849752 57.473868914312874 15.63434748320761 -2 -1 -2
57 19 2 -0.35 12.510120137639008 56.72226881540438 15.870085856460012 -2 -1 -2
38 13 2 -0.35 2.6874249069352554 64.9262150941118 18.159234095531595 -1 -3 5
56 19 2 -0.35 10.807035042060496 58.22546901322137 15.39860910995521 -2 -1 -2
305 102 2 -0.35 26.404005873532807 52.9328659113757 8.07949237270079 -2 0 -1
304 102 1 0.7 27.301619415606925 53.62850890281312 7.84291097540482 -2 0 -1
306 102 2 -0.35 28.199232957681044 54.324151894250534 7.60632957810885 -2 0 -1
492 164 2 -0.35 73.21114734855858 67.72692433736087 14.210719916556783 -10 6 3
490 164 1 0.7 72.96950365594186 68.83792285277879 14.440699534256284 -10 6 3
251 84 2 -0.35 77.00507417601465 60.0433369735053 6.153321951451008 4 -3 0
250 84 1 0.7 76.16493092146207 59.33280980745606 6.520623541613506 4 -3 0
252 84 2 -0.35 75.3247876669095 58.62228264140681 6.8879251317760035 4 -3 0
748 250 1 0.7 77.5050717533873 67.67254109432953 1.3140369824141114 5 -2 4
750 250 2 -0.35 76.78222728117063 66.78168360193601 1.1423722008481423 5 -2 4
82 28 1 0.7 100.95417715511255 64.46442166839928 11.70993477799758 9 -4 3
84 28 2 -0.35 101.0981970561794 63.654611623047494 12.527899299566368 9 -4 3
83 28 2 -0.35 100.81015725404568 65.27423171375108 10.891970256428793 9 -4 3
952 318 1 0.7 90.45964858013669 54.50441286841506 16.846307838845828 6 -6 -1
953 318 2 -0.35 90.0603356869784 53.587296755213124 16.258900613606613 6 -6 -1
1371 457 2 -0.35 108.5473175271045 55.19311772676293 10.2186938357333 -3 -6 3
1369 457 1 0.7 108.3926650812934 56.32027884645993 10.444946860571864 -3 -6 3
1370 457 2 -0.35 108.2380126354823 57.44743996615693 10.671199885410429 -3 -6 3
45 15 2 -0.35 119.59300532131238 74.46688138050114 2.102711258590656 1 6 2
44 15 2 -0.35 1.5808637149763785 73.36609773808327 2.570786444151878 2 6 2
43 15 1 0.7 0.5869345181443766 73.9164895592922 2.3367488513712673 2 6 2
627 209 2 -0.35 10.815882476367825 78.33839077034872 3.569819873742532 -2 7 -6
625 209 1 0.7 11.575546620618885 77.7776424159502 4.243668277300928 -2 7 -6
626 209 2 -0.35 12.335210764869945 77.21689406155166 4.917516680859325 -2 7 -6
1259 420 2 -0.35 32.74067301929498 81.35767442306762 18.12345994078585 2 3 -5
1258 420 1 0.7 32.497007845374554 80.47914111521317 17.406238559336728 2 3 -5
1260 420 2 -0.35 32.25334267145413 79.60060780735871 16.68901717788761 2 3 -5
254 85 2 -0.35 44.91866930497844 77.29412954567795 12.595010751620794 -3 -4 0
253 85 1 0.7 44.256345548652874 76.39322565958058 12.90371680893308 -3 -4 0
255 85 2 -0.35 43.59402179232731 75.49232177348321 13.212422866245365 -3 -4 0
100 34 1 0.7 52.57321414929008 75.80719894004245 2.4573813534844073 6 0 3
101 34 2 -0.35 52.71223626639365 74.90601540802875 1.740345027637872 6 0 3
102 34 2 -0.35 52.4341920321865 76.70838247205616 3.1744176793309427 6 0 3
275 92 2 -0.35 68.50718429321522 76.40561319987154 0.4982022287147987 -2 0 0
491 164 2 -0.35 72.72785996332513 69.94892136819671 14.670679151955785 -10 6 3
274 92 1 0.7 69.31153640955593 77.07417590709433 119.99656333523745 -2 0 -1
276 92 2 -0.35 70.11588852589664 77.74273861431712 119.4949244417601 -2 0 -1
1297 433 1 0.7 85.41502138017515 71.2693515768846 6.261331253898557 4 -2 2
1299 433 2 -0.35 86.15768531292632 71.85464223282112 5.5894048211228355 4 -2 2
1298 433 2 -0.35 84.67235744742398 70.68406092094808 6.933257686674278 4 -2 2
53 18 2 -0.35 110.23105508195081 80.79503796123265 14.60781883928262 4 -3 8
54 18 2 -0.35 110.72096724612756 78.80917686868096 13.51294816542242 4 -3 8
52 18 1 0.7 110.47601116403918 79.80210741495681 14.06038350235252 4 -3 8
257 86 2 -0.35 117.38257224633811 76.46738635945378 6.714531294613845 0 0 6
256 86 1 0.7 117.56920813462227 75.55749265175955 7.40941292906918 0 0 6
258 86 2 -0.35 117.75584402290643 74.64759894406531 8.104294563524515 0 0 6
20 7 2 -0.35 5.921914451680406 91.35974316874619 8.733861798675042 0 0 -1
19 7 1 0.7 5.861599360424123 90.31260034810835 9.229294945479424 0 0 -1
21 7 2 -0.35 5.801284269167842 89.26545752747052 9.724728092283806 0 0 -1
776 259 2 -0.35 1.055184957560887 90.85917709749438 4.844449035964743 -1 -1 3
775 259 1 0.7 0.6823719099341274 90.71923250867742 5.93395623813493 -1 -1 3
777 259 2 -0.35 0.30955886230736795 90.57928791986045 7.023463440305116 -1 -1 3
1282 428 1 0.7 18.075902282065226 94.10197617148745 11.555235333122086 3 0 1
1283 428 2 -0.35 17.23033584625653 93.65356022870532 12.21062876068499 3 0 1
1284 428 2 -0.35 18.921468717873925 94.55039211426958 10.89984190555918 3 0 1
1212 404 2 -0.35 29.7360292050464 88.45173954913624 14.134734576579662 1 0 4
1210 404 1 0.7 30.67658531720107 88.28624817660673 14.793192476151482 1 0 4
1211 404 2 -0.35 31.617141429355744 88.12075680407723 15.451650375723302 1 0 4
1001 334 2 -0.35 46.02138567217637 91.1717825183913 8.329620031187787 -1 -5 -2
859 287 1 0.7 43.07809504763905 104.11719517118745 5.353923670626046 -5 -1 2
1000 334 1 0.7 45.69875892939327 91.22286424116542 7.2165599957718545 -1 -5 -2
1002 334 2 -0.35 45.376132186610164 91.27394596393957 6.103499960355923 -1 -5 -2
860 287 2 -0.35 43.58535797439031 103.0811124722693 5.475648623472959 -5 -1 2
292 98 1 0.7 59.87985257849748 88.38844098938542 14.20580245360818 0 -4 3
293 98 2 -0.35 59.619763916841 88.99158535779121 15.161925227595594 0 -4 3
294 98 2 -0.35 60.13994124015395 87.78529662097962 13.249679679620767 0 -4 3
455 152 2 -0.35 101.31092056494465 91.98570566395364 13.363962868951639 3 -1 2
454 152 1 0.7 101.70162058025782 92.64387429390406 12.492316408176368 3 -1 2
456 152 2 -0.35 102.092320595571 93.30204292385447 11.620669947401096 3 -1 2
606 202 2 -0.35 100.6893989814277 98.16438291603188 3.891434404145499 -3 -3 4
604 202 1 0.7 100.03226333043675 99.07350896607026 3.596032032221756 -3 -3 4
605 202 2 -0.35 99.37512767944578 99.98263501610865 3.3006296602980134 -3 -3 4
763 255 1 0.7 107.63641667131373 94.27210383299324 2.0339953287125367 3 -2 5
764 255 2 -0.35 106.97182540229805 93.70743710842662 2.7988939725306308 3 -2 5
765 255 2 -0.35 108.30100794032938 94.83677055755986 1.269096684894443 3 -2 5
365 122 2 -0.35 115.88995473954863 103.07140604859896 11.144947029378569 6 0 -2
364 122 1 0.7 116.02383283648074 101.92692942322502 11.011343477266434 6 0 -2
366 122 2 -0.35 116.15771093341283 100.78245279785106 10.877739925154298 6 0 -2
1053 351 2 -0.35 8.257322063901054 117.34044252610207 0.824690520869926 3 0 -1
1051 351 1 0.7 7.575940031733262 117.90728099446363 0.07635057337064566 3 0 -1
383 128 2 -0.35 2.420964760638736 117.95659773647553 5.609606875306902 -2 -4 -4
384 128 2 -0.35 1.5338243982828157 117.1523117333916 7.596691675391412 -2 -4 -4
382 128 1 0.7 1.977394579460776 117.55445473493357 6.603149275349157 -2 -4 -4
700 234 1 0.7 2.0861140355032726 113.96768306648531 7.1940299122987215 2 4 -1
701 234 2 -0.35 1.0162413277951399 114.00435463344307 7.640826941696264 2 4 -1
1321 441 1 0.7 6.377083112462914 109.4207920064085 16.033729560891793 6 -1 -3
702 234 2 -0.35 3.1559867432114053 113.93101149952754 6.74723288290118 2 4 -1
1323 441 2 -0.35 7.337785880374542 109.42025986638158 15.383614256846856 6 -1 -3
1322 441 2 -0.35 5.4163803445512855 109.42132414643544 16.683844864936727 6 -1 -3
385 129 1 0.7 37.693415347324546 119.07746244311224 0.06923140054810985 0 -3 10
861 287 2 -0.35 42.57083212088779 105.1532778701056 5.2321987177791325 -5 -1 2
1153 385 1 0.7 54.09571590509671 109.99866384215582 3.6374578026879854 -2 -2 -8
1155 385 2 -0.35 54.63080976499207 109.25982330221022 4.35396964322878 -2 -2 -8
1154 385 2 -0.35 53.560622045201356 110.7375043821014 2.92094596214719 -2 -2 -8
261 87 2 -0.35 64.703293559931 113.20202291538021 13.655552988352586 4 3 -7
260 87 2 -0.35 66.54269671061316 112.05941696639279 14.488288057031673 4 3 -7
259 87 1 0.7 65.62299513527208 112.6307199408865 14.07192052269213 4 3 -7
248 83 2 -0.35 77.34032301662828 108.18978044843685 16.306307932728313 3 -2 3
247 83 1 0.7 77.57113347001409 108.2955488171405 17.43818230154752 3 -2 3
897 299 2 -0.35 95.28342134579694 119.2263256889144 12.477505619888435 1 -4 -1
896 299 2 -0.35 94.88320169613513 119.39954280000508 14.756149967841017 1 -4 -1
895 299 1 0.7 95.08331152096603 119.31293424445974 13.616827793864726 1 -4 -1
344 115 2 -0.35 95.44389893111075 108.77451620765878 3.7981278444092785 3 5 0
343 115 1 0.7 96.24361069456344 107.95829184985926 3.598531017957394 3 5 0
345 115 2 -0.35 97.04332245801614 107.14206749205974 3.39893419150551 3 5 0
594 198 2 -0.35 112.45027346393046 110.92479713124929 14.567031916871846 0 -1 4
592 198 1 0.7 112.13148016144164 109.84038166813973 14.306237105466337 0 -1 4
593 198 2 -0.35 111.81268685895283 108.75596620503016 14.045442294060829 0 -1 4
1047 349 2 -0.35 105.6359284462511 110.78079684663604 1.7398551047613435 -6 -3 6
1045 349 1 0.7 106.31185652010687 110.83119299139291 0.7984829851564481 -6 -3 6
473 158 2 -0.35 18.100218051926646 9.884834656778429 21.046942770791745 -3 -1 0
579 193 2 -0.35 5.7811642212511405 12.62234111694755 20.365372130472707 -4 -4 3
577 193 1 0.7 6.309786964880557 12.332273896258249 19.37440341128994 -4 -4 3
578 193 2 -0.35 6.838409708509974 12.042206675568945 18.38343469210717 -4 -4 3
200 67 2 -0.35 9.465015918330502 6.7219928312969675 24.95299628900256 2 3 -9
199 67 1 0.7 8.833704553364827 6.65952181314254 23.98184062055694 2 3 -9
201 67 2 -0.35 8.202393188399151 6.597050794988112 23.010684952111323 2 3 -9
1189 397 1 0.7 6.023726842718952 4.0229714027018915 29.706844620020775 -4 0 -3
1191 397 2 -0.35 7.098328975125298 4.093174255366466 29.275681290753514 -4 0 -3
1190 397 2 -0.35 4.949124710312606 3.952768550037317 30.13800794928803 -4 0 -3
472 158 1 0.7 18.241936866065338 10.319399886417692 19.980796045942494 -3 -1 0
474 158 2 -0.35 18.38365568020403 10.753965116056955 18.914649321093243 -3 -1 0
1056 352 2 -0.35 24.100936763040067 8.502065638631699 27.029455623172375 7 1 -4
1055 352 2 -0.35 26.19267558741538 9.50371233242166 27.090550560970915 7 1 -4
1054 352 1 0.7 25.146806175227724 9.00288898552668 27.060003092071646 7 1 -4
212 71 2 -0.35 20.089624500129244 0.8597230931089577 21.710671471221588 -1 6 -4
211 71 1 0.7 20.829280130676988 1.7187514454580666 21.464541753268758 -1 6 -4
213 71 2 -0.35 21.568935761224736 2.5777797978071755 21.21841203531593 -1 6 -4
589 197 1 0.7 28.84325755007373 14.515419901905013 34.256336877315995 3 -3 -3
590 197 2 -0.35 29.660072603996813 14.163584314396926 35.001068296720526 3 -3 -3
591 197 2 -0.35 28.026442496150647 14.867255489413099 33.511605457911465 3 -3 -3
948 316 2 -0.35 42.988877034553695 5.833726802264804 28.213140952855003 -5 -5 3
946 316 1 0.7 43.93465351641865 5.283077621076923 27.82857324021287 -5 -5 3
947 316 2 -0.35 44.8804299982836 4.732428439889042 27.444005527570734 -5 -5 3
1329 443 2 -0.35 59.17307755677055 13.647559018564653 20.88804399806666 3 0 -4
1327 443 1 0.7 59.95285192424503 12.80620893508708 20.715759428640173 3 0 -4
1328 443 2 -0.35 60.732626291719505 11.964858851609506 20.543474859213685 3 0 -4
669 223 2 -0.35 69.38231947439752 3.9618250188060156 19.986152702829855 -2 6 -2
667 223 1 0.7 69.17934802040625 4.156755667719245 18.860806253517787 -2 6 -2
668 223 2 -0.35 68.97637656641497 4.351686316632474 17.735459804205718 -2 6 -2
440 147 2 -0.35 77.34366465494931 14.412757858649883 24.755130041951244 0 2 2
441 147 2 -0.35 79.56120525539255 14.901424982430465 24.279611243672488 0 2 2
439 147 1 0.7 78.45243495517093 14.657091420540175 24.517370642811866 0 2 2
204 68 2 -0.35 68.92209713303325 3.7635168607350384 28.04563624825006 -4 -4 5
202 68 1 0.7 68.38539105564071 3.7492677199920164 29.073908366163536 -4 -4 5
203 68 2 -0.35 67.84868497824817 3.7350185792489947 30.102180484077014 -4 -4 5
1201 401 1 0.7 94.54492744529355 16.453411663166296 35.046385246857895 3 -2 2
1203 401 2 -0.35 93.45389233186498 16.111685102653542 34.850259422183406 3 -2 2
797 266 2 -0.35 101.09679956289932 7.688332863663485 23.04994398493311 0 1 2
796 266 1 0.7 100.00576396908927 7.594759278656919 22.667209981700427 0 1 2
798 266 2 -0.35 98.91472837527924 7.501185693650353 22.284475978467743 0 1 2
658 220 1 0.7 115.78565267538576 8.737483958118412 29.391020215023982 -6 0 -2
660 220 2 -0.35 115.36955695861704 7.801174778300814 29.934885523969577 -6 0 -2
659 220 2 -0.35 116.2017483921545 9.67379313793601 28.847154906078387 -6 0 -2
1018 340 1 0.7 115.45984779942026 13.366373221188987 30.390577503339134 -4 5 1
1020 340 2 -0.35 114.70626789717525 14.237172533539841 30.251200717105075 -4 5 1
1019 340 2 -0.35 116.21342770166527 12.495573908838134 30.529954289573194 -4 5 1
1251 417 2 -0.35 111.71677641535508 7.052605460996558 28.7115399058964 -2 -1 0
273 91 2 -0.35 116.23282750151346 7.995817511092491 25.77981487072102 1 3 0
271 91 1 0.7 116.51032397015814 7.2443861683636595 24.94079958656074 1 3 0
1250 417 2 -0.35 111.41174101786804 4.780831997269021 28.353212212591107 -2 -1 0
1249 417 1 0.7 111.56425871661156 5.916718729132789 28.532376059243752 -2 -1 0
272 91 2 -0.35 116.78782043880284 6.492954825634828 24.10178430240046 1 3 0
62 21 2 -0.35 8.732919430213538 28.497730621997345 18.797364269127556 -3 1 2
63 21 2 -0.35 7.128727092702316 28.434770251326967 17.12254997016917 -3 1 2
61 21 1 0.7 7.9308232614579275 28.466250436662158 17.95995711964836 -3 1 2
683 228 2 -0.35 11.673740422850523 22.16905224234719 29.11358791308498 5 2 -1
682 228 1 0.7 11.530514894958792 22.241176659167703 30.26245018361966 5 2 -1
684 228 2 -0.35 11.38728936706706 22.313301075988214 31.411312454154334 5 2 -1
723 241 2 -0.35 14.929493705567182 25.969740215165842 32.95300868233784 5 -1 -4
721 241 1 0.7 14.22575115066283 25.94433680370692 32.03121636131154 5 -1 -4
722 241 2 -0.35 13.522008595758477 25.918933392248004 31.109424040285255 5 -1 -4
937 313 1 0.7 30.02724561479966 32.81447926197297 22.884108669918508 0 0 -1
939 313 2 -0.35 30.263001949876 31.78843773016343 22.397017584519553 0 0 -1
938 313 2 -0.35 29.79148927972332 33.84052079378251 23.371199755317463 0 0 -1
373 125 1 0.7 28.981347056667715 24.456614749829704 34.0797057232953 3 3 4
375 125 2 -0.35 29.24931835264578 24.228192274116026 35.184972459030355 3 3 4
1439 480 2 -0.35 26.082291017370625 22.180641008292707 29.550813086966276 0 -3 2
1438 480 1 0.7 25.53890360563 22.84119063229102 28.76722881262332 0 -3 2
1440 480 2 -0.35 24.995516193889376 23.501740256289338 27.983644538280366 0 -3 2
374 125 2 -0.35 28.713375760689654 24.68503722554338 32.974438987560234 3 3 4
484 162 1 0.7 71.95701488464907 31.004172007648318 26.996905396151718 -2 -1 2
486 162 2 -0.35 71.54206119150726 32.039602109516586 26.67863202828767 -2 -1 2
485 162 2 -0.35 72.37196857779088 29.968741905780046 27.31517876401577 -2 -1 2
887 296 2 -0.35 101.69353614841302 32.3388763570571 33.18939063331353 4 -4 2
886 296 1 0.7 101.91936544787663 31.9022818394246 32.138683083765635 4 -4 2
888 296 2 -0.35 102.14519474734024 31.465687321792096 31.08797553421774 4 -4 2
268 90 1 0.7 95.41015477018813 30.00359617584627 32.85800026872664 1 -5 -1
269 90 2 -0.35 94.98904204276786 29.688823033499986 31.82398772544576 1 -5 -1
1445 482 2 -0.35 92.39536720198781 21.140617204885668 27.484042457685575 -5 -2 1
1446 482 2 -0.35 90.85795372593091 19.423942304681017 27.751973588101603 -5 -2 1
270 90 2 -0.35 95.83126749760838 30.318369318192556 33.89201281200752 1 -5 -1
1444 482 1 0.7 91.62666046395935 20.282279754783342 27.61800802289359 -5 -2 1
146 49 2 -0.35 105.18764897074963 17.845780491140122 32.168114262484345 -4 0 1
145 49 1 0.7 104.67901082163159 18.88440767636867 32.25834066309766 -4 0 1
147 49 2 -0.35 104.17037267251355 19.92303486159722 32.34856706371097 -4 0 1
1350 450 2 -0.35 40.66005404390162 44.481487292155954 33.05049663628408 -4 -3 -1
1348 450 1 0.7 40.89764158395375 44.201057014604395 31.950264378875072 -4 -3 -1
1349 450 2 -0.35 41.13522912400588 43.92062673705283 30.850032121466064 -4 -3 -1
727 243 1 0.7 54.741161326447006 36.91476623354884 20.724733756321037 0 0 8
728 243 2 -0.35 54.0864685662814 36.750571569436 21.668141145557072 0 0 8
729 243 2 -0.35 55.39585408661262 37.07896089766167 19.781326367085 0 0 8
1335 445 2 -0.35 74.19112522891179 39.59756368644621 31.95659434143134 -5 -1 0
685 229 1 0.7 76.90527633959766 43.177054236425924 34.4096447843646 -3 5 -4
1333 445 1 0.7 74.88131891457962 38.67828967017798 31.801133866462106 -5 -1 0
1334 445 2 -0.35 75.57151260024744 37.759015653909756 31.645673391492867 -5 -1 0
1497 499 2 -0.35 81.4931993271115 43.89955748767255 31.321185075994208 -5 7 0
1495 499 1 0.7 82.22336892459386 44.349160194681446 30.53996182700338 -5 7 0
1496 499 2 -0.35 82.95353852207622 44.79876290169033 29.75873857801255 -5 7 0
687 229 2 -0.35 76.86462600401012 44.32165647471393 34.59358299769581 -3 5 -4
37 13 1 0.7 3.150050761335386 65.81655130589763 18.741367026075764 -1 -3 5
39 13 2 -0.35 3.612676615735517 66.70688751768347 19.323499956619933 -1 -3 5
599 200 2 -0.35 14.474319204988433 61.386780133208845 30.261877553943066 6 2 -1
598 200 1 0.7 14.046671149813232 61.87780062276247 29.301869210362582 6 2 -1
600 200 2 -0.35 13.61902309463803 62.368821112316105 28.3418608667821 6 2 -1
1254 418 2 -0.35 13.51636581384992 52.9384029077552 24.813535797809863 3 2 -5
1252 418 1 0.7 12.481797780281106 53.38156390649928 25.094386849278383 3 2 -5
1253 418 2 -0.35 11.447229746712294 53.824724905243365 25.375237900746907 3 2 -5
940 314 1 0.7 6.209961276083972 58.09179546537346 26.155662323844023 0 1 0
941 314 2 -0.35 7.026870453042284 57.99197757548941 25.33816872420068 0 1 0
1316 439 2 -0.35 11.998228657268037 54.44306659182609 29.21439226546739 -4 0 -5
942 314 2 -0.35 5.39305209912566 58.191613355257516 26.97315592348737 0 1 0
1315 439 1 0.7 12.772144075848717 55.26417781333219 28.945261652564714 -4 0 -5
1317 439 2 -0.35 13.546059494429398 56.08528903483828 28.67613103966204 -4 0 -5
609 203 2 -0.35 23.198661303317134 53.96333293865578 23.694173160971385 -5 2 -3
607 203 1 0.7 22.328185176206027 53.64294127108726 22.997595461441826 -5 2 -3
608 203 2 -0.35 21.457709049094916 53.32254960351874 22.30101776191227 -5 2 -3
1133 378 2 -0.35 25.805442095602245 60.17980964473763 31.224695787291097 4 -4 -5
1132 378 1 0.7 25.54845176833993 59.38135969236468 30.42342576710534 4 -4 -5
1134 378 2 -0.35 25.291461441077615 58.58290973999174 29.622155746919578 4 -4 -5
290 97 2 -0.35 34.97461119248187 68.41606344144095 27.117924953404827 6 1 3
291 97 2 -0.35 36.09953794763849 66.9410803000476 25.724596374735828 6 1 3
289 97 1 0.7 35.53707457006018 67.67857187074428 26.421260664070328 6 1 3
404 135 2 -0.35 38.67364992291381 68.49190762753523 34.39574505750187 -1 0 4
403 135 1 0.7 39.506703842062336 68.66082563289802 33.6063859027087 -1 0 4
405 135 2 -0.35 40.339757761210855 68.82974363826082 32.817026747915534 -1 0 4
317 106 2 -0.35 68.4881847236305 54.37394500465003 20.942670145675976 -1 2 5
316 106 1 0.7 67.46023652563858 54.80212669523759 21.26760543476205 -1 2 5
318 106 2 -0.35 66.43228832764666 55.23030838582515 21.592540723848124 -1 2 5
1340 447 2 -0.35 56.30033544965875 63.26363608333369 36.14898059981761 -5 -5 1
23 8 2 -0.35 60.235259308751985 62.57743903673604 32.9276656529704 -6 1 1
22 8 1 0.7 60.912279589453355 62.81256870481432 33.83978273904494 -6 1 1
113 38 2 -0.35 82.98567592063712 62.54698121088374 25.77017891257666 -6 0 2
114 38 2 -0.35 82.67814469728009 62.59012647955268 23.471056681710877 -6 0 2
112 38 1 0.7 82.8319103089586 62.56855384521821 24.62061779714377 -6 0 2
954 318 2 -0.35 90.85896147329497 55.42152898161699 17.43371506408504 6 -6 -1
221 74 2 -0.35 90.72463818464173 62.50796460300789 29.6194877470058 -1 -2 1
220 74 1 0.7 91.6561641023092 62.505376559474705 28.928218793019287 -1 -2 1
222 74 2 -0.35 92.58769001997668 62.50278851594152 28.236949839032775 -1 -2 1
1368 456 2 -0.35 106.35570391791767 59.108021876807314 31.696551915765703 2 -3 3
1367 456 2 -0.35 105.1880364991301 57.46251206240058 30.551453557633874 2 -3 3
1366 456 1 0.7 105.7718702085239 58.285266969603946 31.124002736699786 2 -3 3
957 319 2 -0.35 35.919021515810314 85.77839562516462 33.58009841677355 2 2 3
955 319 1 0.7 35.99069623314263 86.92467238457691 33.417272357038726 2 2 3
414 138 2 -0.35 35.62962387520633 80.25332999926339 30.286462262949485 0 -3 5
413 138 2 -0.35 35.12880889498167 81.22562096382507 28.24043327102026 0 -3 5
412 138 1 0.7 35.379216385094 80.73947548154423 29.263447766984875 0 -3 5
1359 453 2 -0.35 51.37724300612515 85.17659134356063 31.957470300105044 1 -3 -5
1357 453 1 0.7 51.787762129588224 84.14626081482211 31.61762761470292 1 -3 -5
500 167 2 -0.35 66.29822063076605 74.34936951054783 23.48798258733841 5 -1 11
499 167 1 0.7 66.93519609583946 74.70493373354059 22.586075529919363 5 -1 11
501 167 2 -0.35 67.57217156091288 75.06049795653334 21.684168472500318 5 -1 11
945 315 2 -0.35 63.47280971868244 76.26915817064626 19.655455307199325 5 0 5
943 315 1 0.7 63.7331390083074 76.00196687731447 20.753834783396584 5 0 5
944 315 2 -0.35 63.99346829793236 75.73477558398267 21.852214259593847 5 0 5
1358 453 2 -0.35 52.1982812530513 83.1159302860836 31.27778492930079 1 -3 -5
928 310 1 0.7 69.68085227347935 69.97202062591623 18.34337926837397 2 -3 -4
930 310 2 -0.35 70.00004934238416 69.37312602455293 19.284144110223096 2 -3 -4
929 310 2 -0.35 69.36165520457453 70.57091522727953 17.402614426524845 2 -3 -4
1478 493 2 -0.35 97.0481924395168 78.89970702093011 32.41894960740532 -4 -7 -6
1479 493 2 -0.35 98.03143895302529 78.93925604425371 30.31798264706859 -4 -7 -6
1477 493 1 0.7 97.53981569627103 78.9194815325919 31.368466127236953 -4 -7 -6
183 61 2 -0.35 95.30263818227314 84.35695051333043 27.60263614647958 3 1 7
181 61 1 0.7 96.28111303478347 84.50442385338432 28.207977849138295 3 1 7
520 174 1 0.7 103.88663431665356 74.55616059856182 21.223178603333402 3 -3 3
521 174 2 -0.35 102.73661708680238 74.51169128997071 21.368377954709462 3 -3 3
182 61 2 -0.35 97.2595878872938 84.65189719343822 28.813319551797015 3 1 7
408 136 2 -0.35 94.22702089196832 79.21181161402028 33.778719017708426 -4 2 2
522 174 2 -0.35 105.03665154650473 74.6006299071529 21.077979251957345 3 -3 3
1268 423 2 -0.35 26.21440854152074 91.87862066286053 22.538566208420338 0 4 3
1267 423 1 0.7 27.28337508365481 91.63942484371938 22.92026752084146 0 4 3
1269 423 2 -0.35 28.35234162578888 91.40022902457822 23.30196883326258 0 4 3
956 319 2 -0.35 36.06237095047494 88.0709491439892 33.2544462973039 2 2 3
884 295 2 -0.35 58.10477454826774 101.93915790674389 30.31976000727948 10 -3 -4
883 295 1 0.7 58.259561103418385 101.512546022984 31.387300836934624 10 -3 -4
885 295 2 -0.35 58.41434765856903 101.08593413922411 32.454841666589765 10 -3 -4
1240 414 1 0.7 79.1169624701975 94.78616294180924 20.129364948063568 -1 -6 -1
1241 414 2 -0.35 78.66456742560031 95.48704428923926 20.935407168079614 -1 -6 -1
1242 414 2 -0.35 79.5693575147947 94.08528159437923 19.323322728047522 -1 -6 -1
231 77 2 -0.35 68.7479297954817 90.69928617440374 33.38690981806946 -3 4 -5
229 77 1 0.7 69.10926836082288 91.29201769814236 32.457553168573135 -3 4 -5
230 77 2 -0.35 69.47060692616408 91.884749221881 31.528196519076808 -3 4 -5
1407 469 2 -0.35 115.70152212987031 89.36911311843586 26.74243917113891 0 -3 4
1405 469 1 0.7 114.65713618188842 89.85364262168642 26.60070296498014 0 -3 4
1406 469 2 -0.35 113.61275023390652 90.33817212493697 26.458966758821372 0 -3 4
1169 390 2 -0.35 118.33684257109141 96.75037010859694 29.565694165844054 -4 0 0
1168 390 1 0.7 118.66746672221599 96.97915285428189 30.65378705065196 -4 0 0
1170 390 2 -0.35 118.99809087334057 97.20793559996685 31.741879935459867 -4 0 0
15 5 2 -0.35 18.5896840407131 106.09726960614563 24.020546221347796 -4 -2 6
1485 495 2 -0.35 22.985270764039345 110.67009095761323 18.48605108439496 -3 3 -1