LAMMPS (29 Aug 2024 - Update 1)
  using 1 OpenMP thread(s) per MPI task
package gpu 1 gpuID 0
# GCMC for CO2 molecular fluid, rigid/small/nvt dynamics
# Rigid CO2 TraPPE model
# [Potoff and J.I. Siepmann, Vapor-liquid equilibria of
# mixtures containing alkanes, carbon dioxide and
# nitrogen AIChE J., 47,1676-1682 (2001)].

# global model settings

units           real
atom_style      full
boundary        p p p
pair_style      lj/cut/coul/long  12
pair_modify     mix arithmetic shift yes
kspace_style    pppm 1.0e-4
bond_style      harmonic
angle_style     harmonic
neigh_modify    one 4000

# box, start molecules on simple cubic lattice
region          mbox block 0 ${lbox} 0 ${lbox} 0 ${lbox} units box
region          mbox block 0 120 0 ${lbox} 0 ${lbox} units box
region          mbox block 0 120 0 120 0 ${lbox} units box
region          mbox block 0 120 0 120 0 120 units box
create_box      2 mbox                                       bond/types 1                                angle/types 1                               extra/bond/per/atom 2                       extra/angle/per/atom 1                      extra/special/per/atom 2
Created orthogonal box = (0 0 0) to (120 120 120)
  1 by 1 by 1 MPI processor grid
molecule        co2mol ../CO2.txt
Read molecule template co2mol:
# CO2 molecule file. TraPPE model.
  1 molecules
  0 fragments
  3 atoms with max type 2
  2 bonds with max type 1
  1 angles with max type 1
  0 dihedrals with max type 0
  0 impropers with max type 0
create_atoms   	0 random ${nmols} 34578 mbox mol co2mol 464563 overlap 1.2
create_atoms   	0 random 500 34578 mbox mol co2mol 464563 overlap 1.2
Created 1500 atoms
  using lattice units in orthogonal box = (0 0 0) to (120 120 120)
  create_atoms CPU = 0.013 seconds

# rigid CO2 TraPPE model

pair_coeff      1   1  0.053649   2.800
pair_coeff      2   2  0.156973   3.050
bond_coeff      1       0       1.16
angle_coeff     1       0       180

# masses

mass 1 12.0107
mass 2 15.9994

write_data init_conf.data  pair ij
System init for write_data ...
PPPM initialization ...
  using 12-bit tables for long-range coulomb (src/kspace.cpp:342)
  G vector (1/distance) = 0.17038764
  grid = 27 27 27
  stencil order = 5
  estimated absolute RMS force accuracy = 0.029922947
  estimated relative force accuracy = 9.0112066e-05
  using double precision FFTW3
  3d grid and FFT values/proc = 32768 19683
Generated 1 of 1 mixed pair_coeff terms from arithmetic mixing rule

# MD settings

group           co2 type 1 2
1500 atoms in group co2
velocity       	all create 300 54654
timestep        0.25

# rigid constraints with thermostat
fix             myrigidnvt co2 rigid/nvt molecule temp 300 300 $(100*dt)
fix             myrigidnvt co2 rigid/nvt molecule temp 300 300 25
  500 rigid bodies with 1500 atoms

thermo 1000
thermo_style custom step temp density press ke pe etotal


variable    mvol equal vol
variable    mden equal density
variable	mtmp equal temp
variable    mpre equal press

fix mydat all ave/time 1 4000 4000 v_mtmp v_mden v_mpre file statistics.dat ## every 1ps

run 4000000 ## 1ns

CITE-CITE-CITE-CITE-CITE-CITE-CITE-CITE-CITE-CITE-CITE-CITE-CITE

Your simulation uses code contributions which should be cited:

- GPU package (short-range, long-range and three-body potentials): doi:10.1016/j.cpc.2010.12.021, doi:10.1016/j.cpc.2011.10.012, doi:10.1016/j.cpc.2013.08.002, doi:10.1016/j.commatsci.2014.10.068, doi:10.1016/j.cpc.2016.10.020, doi:10.3233/APC200086

@Article{Brown11,
 author = {W. M. Brown and P. Wang and S. J. Plimpton and A. N. Tharrington},
 title = {Implementing Molecular Dynamics on Hybrid High Performance Computers---Short Range Forces},
 journal = {Comput.\ Phys.\ Commun.},
 year =    2011,
 volume =  182,
 pages =   {898--911},
 doi =     {10.1016/j.cpc.2010.12.021}
}

@Article{Brown12,
 author = {W. M. Brown and A. Kohlmeyer and S. J. Plimpton and A. N. Tharrington},
 title = {Implementing Molecular Dynamics on Hybrid High Performance Computers - Particle-Particle Particle-Mesh},
 journal = {Comput.\ Phys.\ Commun.},
 year =    2012,
 volume =  183,
 doi =     {10.1016/j.cpc.2011.10.012},
 pages =   {449--459}
}

@Article{Brown13,
 author = {W. M. Brown and Y. Masako},
 title = {Implementing Molecular Dynamics on Hybrid High Performance Computers---Three-Body Potentials},
 journal = {Comput.\ Phys.\ Commun.},
 year =    2013,
 volume =  184,
 pages =   {2785--2793},
 doi =     {10.1016/j.cpc.2013.08.002},
}

@Article{Trung15,
 author = {T. D. Nguyen and S. J. Plimpton},
 title = {Accelerating Dissipative Particle Dynamics Simulations for Soft Matter Systems},
 journal = {Comput.\ Mater.\ Sci.},
 year =    2015,
 doi =     {10.1016/j.commatsci.2014.10.068},
 volume =  100,
 pages =   {173--180}
}

@Article{Trung17,
 author = {T. D. Nguyen},
 title = {{GPU}-Accelerated {T}ersoff Potentials for Massively Parallel
    Molecular Dynamics Simulations},
 journal = {Comput.\ Phys.\ Commun.},
 year =    2017,
 doi =     {10.1016/j.cpc.2016.10.020},
 volume =  212,
 pages =   {113--122}
}

@inproceedings{Nikolskiy19,
 author = {V. Nikolskiy and V. Stegailov},
 title = {{GPU} Acceleration of Four-Site Water Models in {LAMMPS}},
 booktitle = {Proceedings of the International Conference on Parallel
    Computing (ParCo 2019), Prague, Czech Republic},
 doi =     {10.3233/APC200086},
 year =    2019
}

CITE-CITE-CITE-CITE-CITE-CITE-CITE-CITE-CITE-CITE-CITE-CITE-CITE

PPPM initialization ...
  using 12-bit tables for long-range coulomb (src/kspace.cpp:342)
  G vector (1/distance) = 0.17038764
  grid = 27 27 27
  stencil order = 5
  estimated absolute RMS force accuracy = 0.029922947
  estimated relative force accuracy = 9.0112066e-05
  using double precision FFTW3
  3d grid and FFT values/proc = 32768 19683
Generated 1 of 1 mixed pair_coeff terms from arithmetic mixing rule
Per MPI rank memory allocation (min/avg/max) = 10.4 | 10.4 | 10.4 Mbytes
   Step          Temp         Density         Press          KinEng         PotEng         TotEng    
         0   306.19616      0.021145685   -32.722833      759.68112      45884.669      46644.35     
      1000   298.62698      0.021145685    9.9384343      740.90177     -14.427968      726.4738     
      2000   307.26198      0.021145685    11.59345       762.32545     -35.885149      726.4403     
      3000   308.22252      0.021145685    9.5297495      764.70858     -47.130511      717.57807    
      4000   300.48183      0.021145685    10.487962      745.50371     -51.982919      693.52079    
      5000   298.75712      0.021145685    10.701399      741.22465     -60.050578      681.17407    
      6000   308.28282      0.021145685    13.876848      764.85818     -68.858702      695.99948    
      7000   307.92998      0.021145685    11.946977      763.98276     -73.991378      689.99138    
      8000   300.83794      0.021145685    4.9860237      746.38723     -71.90957       674.47766    
      9000   283.92065      0.021145685    25.667048      704.41496     -43.557137      660.85782    
     10000   292.9987       0.021145685    15.216541      726.93784     -74.80888       652.12896    
     11000   312.75315      0.021145685    16.828084      775.94918     -80.96115       694.98803    
     12000   307.16248      0.021145685    1.6718285      762.07858     -76.836967      685.24162    
     13000   296.40965      0.021145685    19.379903      735.40051     -75.700838      659.69967    
     14000   305.26052      0.021145685   -0.73441153     757.35977     -79.586805      677.77297    
     15000   300.15664      0.021145685    10.069758      744.6969      -77.465182      667.23172    
     16000   299.60835      0.021145685    10.772941      743.33658     -84.843707      658.49288    
     17000   303.62447      0.021145685    8.5252386      753.30068     -86.777507      666.52317    
     18000   290.18028      0.021145685    22.664201      719.94526     -47.661531      672.28373    
     19000   293.35386      0.021145685    8.4771984      727.81901     -86.434526      641.38449    
     20000   310.55496      0.021145685    3.4174469      770.49541     -82.49133       688.00408    
     21000   297.36453      0.021145685    5.8920063      737.7696      -87.991671      649.77792    
     22000   301.22108      0.021145685    10.274358      747.3378      -90.724822      656.61298    
     23000   305.33762      0.021145685    16.965346      757.55106     -94.397823      663.15323    
     24000   292.87709      0.021145685    7.433451       726.63613     -92.887866      633.74826    
     25000   304.56969      0.021145685    5.7255464      755.6458      -89.921998      665.7238     
     26000   314.33795      0.021145685    7.9683092      779.88111     -92.771589      687.10952    
     27000   313.8056       0.021145685    10.388925      778.56035     -99.127843      679.4325     
     28000   280.4661       0.021145685    11.255435      695.84412     -94.374598      601.46952    
     29000   299.6826       0.021145685    11.218221      743.52078     -97.90401       645.61677    
     30000   301.04594      0.021145685    11.894716      746.90328     -97.703955      649.19932    
     31000   296.25825      0.021145685    10.660176      735.02488     -96.591932      638.43294    
     32000   294.14182      0.021145685    3.9432227      729.77396     -96.379165      633.39479    
     33000   329.8541       0.021145685    11.251154      818.37711     -95.639134      722.73798    
     34000   295.22849      0.021145685    9.4200195      732.47001     -98.662492      633.80752    
     35000   293.29796      0.021145685    15.407202      727.68032     -100.13899      627.54133    
     36000   302.81116      0.021145685    10.687342      751.28285     -108.42905      642.85379    
     37000   305.15751      0.021145685    8.1485259      757.10419     -104.26181      652.84237    
     38000   305.54174      0.021145685    11.076753      758.05749     -105.59944      652.45805    
     39000   282.17578      0.021145685    7.476148       700.08588     -104.93108      595.1548     
     40000   298.19329      0.021145685    11.477746      739.82577     -109.19281      630.63296    
     41000   309.0649       0.021145685    16.499028      766.79854     -112.63211      654.16642    
     42000   289.67908      0.021145685    11.162474      718.70178     -109.0129       609.68887    
     43000   288.13496      0.021145685    17.128022      714.87077     -118.59685      596.27392    
     44000   304.75235      0.021145685    8.2149675      756.09897     -124.26998      631.829      
     45000   297.81649      0.021145685    9.1824652      738.89093     -126.41642      612.47451    
     46000   298.24771      0.021145685    13.567742      739.96079     -121.72073      618.24006    
     47000   299.7643       0.021145685    9.0602803      743.7235      -119.56394      624.15956    
     48000   293.38715      0.021145685    12.048773      727.9016      -122.52618      605.37542    
     49000   310.28727      0.021145685    11.039047      769.83127     -119.65447      650.17679    
     50000   305.65459      0.021145685    10.259294      758.33745     -122.1304       636.20705    
     51000   284.90391      0.021145685    9.2256867      706.85446     -125.64515      581.20931    
     52000   293.76653      0.021145685    10.572015      728.84285     -121.1099       607.73295    
     53000   306.55258      0.021145685    11.182887      760.56539     -126.04916      634.51623    
     54000   308.21235      0.021145685    9.4244162      764.68333     -129.07754      635.60579    
     55000   298.3269       0.021145685    10.310803      740.15725     -126.26529      613.89197    
     56000   295.76573      0.021145685    8.6061877      733.80293     -121.15249      612.65044    
     57000   298.21062      0.021145685    5.6529666      739.86877     -127.52692      612.34185    
     58000   310.84548      0.021145685    11.061929      771.2162      -128.10967      643.10653    
     59000   283.64776      0.021145685    9.2191135      703.7379      -127.78427      575.95363    
     60000   286.21429      0.021145685    10.609876      710.10554     -129.02169      581.08385    
     61000   307.39159      0.021145685    14.170603      762.64701     -129.68633      632.96068    
     62000   312.58643      0.021145685    10.143334      775.53555     -131.00839      644.52716    
     63000   292.78578      0.021145685    7.6695954      726.40959     -138.3103       588.09929    
     64000   286.92878      0.021145685    11.949439      711.87822     -138.57195      573.30627    
     65000   313.63132      0.021145685    10.476011      778.12795     -141.37973      636.74822    
     66000   296.36711      0.021145685    16.597582      735.29498     -131.41823      603.87675    
     67000   285.99164      0.021145685    7.9547324      709.55315     -132.37393      577.17922    
     68000   303.77086      0.021145685    6.8857298      753.66387     -130.01645      623.64742    
     69000   301.99093      0.021145685    18.282508      749.24783     -135.77175      613.47608    
     70000   287.01005      0.021145685   -8.7225269      712.07985     -130.19924      581.88061    
     71000   299.44873      0.021145685    8.3284778      742.94055     -134.61038      608.33017    
     72000   288.38812      0.021145685    34.678368      715.49887     -143.36753      572.13134    
     73000   305.4857       0.021145685    4.3761614      757.91845     -146.94596      610.9725     
     74000   300.70692      0.021145685   -0.35431418     746.06216     -146.00954      600.05262    
     75000   301.03242      0.021145685    15.977731      746.86973     -147.84569      599.02404    
     76000   288.08064      0.021145685    11.391717      714.73602     -153.67881      561.0572     
     77000   304.45095      0.021145685    8.6802808      755.35119     -149.63284      605.71835    
     78000   298.38215      0.021145685    10.418135      740.29434     -146.71561      593.57873    
     79000   299.66936      0.021145685    9.2531028      743.48793     -147.35233      596.13561    
     80000   317.7545       0.021145685    11.039815      788.35767     -153.75605      634.60163    
     81000   297.00978      0.021145685    8.4064455      736.88945     -147.67499      589.21446    
     82000   293.33945      0.021145685    8.857258       727.78326     -150.81414      576.96912    
     83000   308.0401       0.021145685    9.2428705      764.25598     -153.6046       610.65138    
     84000   312.90104      0.021145685    13.143449      776.31612     -152.22354      624.09258    
     85000   320.10728      0.021145685    12.027098      794.19498     -150.1434       644.05158    
     86000   309.22558      0.021145685    10.644359      767.19719     -151.48039      615.71679    
     87000   288.1997       0.021145685    9.7715574      715.0314      -157.06227      557.96913    
     88000   304.30054      0.021145685    17.406457      754.97802     -148.27414      606.70387    
     89000   301.34516      0.021145685    10.200164      747.64564     -147.62959      600.01605    
     90000   300.66292      0.021145685    6.4914376      745.95299     -149.95568      595.99732    
     91000   286.33616      0.021145685    12.053919      710.40791     -142.62813      567.77978    
     92000   295.04461      0.021145685    13.429991      732.01381     -135.12823      596.88558    
     93000   310.12816      0.021145685    5.2082363      769.43651     -142.72381      626.7127     
     94000   293.49142      0.021145685    15.480839      728.16029     -145.21632      582.94398    
     95000   291.66894      0.021145685    7.5039179      723.63869     -145.18808      578.4506     
     96000   309.47344      0.021145685    8.959738       767.81212     -148.17251      619.63962    
     97000   302.29494      0.021145685    11.67263       750.00207     -148.61722      601.38485    
     98000   294.50015      0.021145685    9.5433523      730.66299     -147.92558      582.7374     
     99000   293.98583      0.021145685    7.6806445      729.38695     -150.59763      578.78933    
    100000   314.84059      0.021145685    16.398815      781.12817     -138.87076      642.25741    
    101000   287.41635      0.021145685    10.943319      713.08789     -144.69587      568.39203    
    102000   304.91021      0.021145685    8.7554322      756.49064     -145.96621      610.52444    
    103000   315.63251      0.021145685    12.043179      783.09296     -147.0503       636.04265    
    104000   312.04647      0.021145685    22.76705       774.19588     -146.67766      627.51823    
    105000   298.65846      0.021145685    10.202418      740.97988     -157.97679      583.00309    
    106000   291.20347      0.021145685   -2.5354886      722.48385     -151.05927      571.42457    
    107000   311.39839      0.021145685    12.115441      772.588       -150.88767      621.70033    
    108000   309.48876      0.021145685    14.818064      767.85014     -151.60577      616.24438    
    109000   289.22512      0.021145685    10.40267       717.57549     -148.20292      569.37257    
    110000   297.83171      0.021145685    7.7341242      738.92869     -147.16617      591.76252    
    111000   302.65277      0.021145685    9.1694172      750.88987     -152.21904      598.67083    
    112000   304.90528      0.021145685    10.697692      756.4784      -150.10044      606.37797    
    113000   290.5316       0.021145685    9.2248477      720.81692     -152.11456      568.70236    
    114000   294.68639      0.021145685    9.9811456      731.12507     -151.06673      580.05833    
    115000   308.48656      0.021145685    11.700281      765.36366     -150.83748      614.52618    
    116000   311.64522      0.021145685    12.843325      773.20038     -151.66656      621.53382    
    117000   284.75665      0.021145685    12.211342      706.4891      -152.91974      553.56936    
    118000   295.33259      0.021145685    8.3871058      732.72829     -156.43011      576.29818    
    119000   320.04759      0.021145685   -2.8406903      794.04688     -149.29641      644.75047    
    120000   300.94525      0.021145685    16.81036       746.65347     -155.63776      591.01572    
    121000   285.3311       0.021145685    6.3636341      707.91432     -153.68338      554.23093    
    122000   312.47523      0.021145685    10.979469      775.25966     -150.57293      624.68673    
    123000   300.98545      0.021145685    12.06797       746.7532      -153.52325      593.22995    
    124000   292.56662      0.021145685    3.1088569      725.86586     -154.26088      571.60498    
    125000   302.47681      0.021145685    2.5550895      750.4533      -150.94533      599.50797    
    126000   313.69886      0.021145685    13.630884      778.29551     -155.07372      623.22179    
    127000   290.18653      0.021145685    15.190498      719.96078     -151.62723      568.33355    
    128000   288.63764      0.021145685    12.340442      716.11794     -150.12731      565.99063    
    129000   304.4473       0.021145685    7.1687998      755.34214     -147.41202      607.93012    
    130000   304.6944       0.021145685    10.80132       755.95522     -150.04102      605.9142     
    131000   302.56772      0.021145685    11.05721       750.67885     -152.96642      597.71244    
    132000   300.52472      0.021145685    9.3559513      745.61012     -145.99093      599.61919    
    133000   297.45581      0.021145685    9.9098731      737.99607     -150.52584      587.47023    
    134000   299.29819      0.021145685    4.4038909      742.56706     -150.54221      592.02485    
    135000   310.26527      0.021145685    13.357703      769.77669     -151.11361      618.66308    
    136000   302.08864      0.021145685    12.201216      749.49024     -147.963        601.52724    
    137000   293.29927      0.021145685    10.109257      727.68359     -135.15978      592.52381    
    138000   303.73947      0.021145685    11.946924      753.58601     -135.79411      617.7919     
    139000   292.83546      0.021145685    9.6498694      726.53285     -143.33357      583.19928    
    140000   307.45327      0.021145685    9.2776838      762.80004     -148.89956      613.90048    
    141000   286.36196      0.021145685    7.1495131      710.47192     -139.32494      571.14698    
    142000   290.82794      0.021145685    10.212089      721.55214     -144.98635      576.56579    
    143000   311.26821      0.021145685    12.405075      772.265       -147.70939      624.55561    
    144000   314.53105      0.021145685    10.159346      780.36019     -139.43072      640.92947    
    145000   316.15565      0.021145685   -8.012129       784.39089     -143.08142      641.30947    
    146000   294.49794      0.021145685    8.6233292      730.65751     -139.58855      591.06897    
    147000   293.05874      0.021145685    14.58435       727.08682     -145.08281      582.00402    
    148000   302.66417      0.021145685    11.567875      750.91814     -142.9491       607.96904    
    149000   310.58635      0.021145685    7.245703       770.5733      -137.53906      633.03424    
    150000   302.00409      0.021145685    12.492554      749.28047     -133.34552      615.93495    
    151000   295.90864      0.021145685    5.8825111      734.15749     -133.84133      600.31616    
    152000   293.48668      0.021145685    9.6843606      728.14855     -135.69181      592.45673    
    153000   298.47654      0.021145685    9.5871296      740.52851     -142.71389      597.81462    
    154000   304.08269      0.021145685    10.072028      754.43753     -134.94686      619.49067    
    155000   300.461        0.021145685    12.764292      745.45203     -130.82812      614.62391    
    156000   300.22478      0.021145685    8.4580642      744.86595     -145.5669       599.29905    
    157000   313.44185      0.021145685    11.038639      777.65788     -141.60066      636.05722    
    158000   287.22073      0.021145685    9.1242431      712.60254     -141.09539      571.50715    
    159000   295.05911      0.021145685    11.501142      732.0498      -136.80798      595.24181    
    160000   326.44079      0.021145685    12.687959      809.90861     -137.93658      671.97203    
    161000   301.45773      0.021145685    9.7871051      747.92494     -126.93677      620.98817    
    162000   292.95924      0.021145685    12.658186      726.83996     -127.1078       599.73216    
    163000   309.86689      0.021145685    10.983421      768.78831     -129.91825      638.87006    
    164000   301.01234      0.021145685    7.1022055      746.81991     -127.73003      619.08987    
    165000   292.76615      0.021145685    13.533551      726.3609      -131.26139      595.09951    
    166000   311.89307      0.021145685    13.168373      773.8153      -124.66208      649.15322    
    167000   299.93273      0.021145685    8.9300214      744.14137     -129.47153      614.66984    
    168000   286.30129      0.021145685    11.018179      710.3214      -128.77166      581.54974    
    169000   306.94718      0.021145685    12.458327      761.54441     -132.69071      628.8537     
    170000   310.22487      0.021145685    4.3636518      769.67645     -129.18985      640.4866     
    171000   289.3803       0.021145685    9.151715       717.9605      -127.34243      590.61807    
    172000   296.29682      0.021145685    18.864565      735.12057     -119.57105      615.54952    
    173000   308.22215      0.021145685    0.54240143     764.70766     -118.966        645.74165    
    174000   300.00471      0.021145685    1.811084       744.31997     -124.61923      619.70073    
    175000   294.8712       0.021145685    15.036899      731.58357     -117.73987      613.8437     
    176000   321.14948      0.021145685    1.0364722      796.78072     -123.27902      673.5017     
    177000   295.55209      0.021145685    3.0306677      733.27288     -120.82398      612.4489     
    178000   284.14761      0.021145685    2.7816417      704.97806     -117.56802      587.41005    
    179000   311.5026       0.021145685    15.456137      772.84654     -113.84067      659.00587    
    180000   300.81201      0.021145685    11.0602        746.32288     -118.20423      628.11865    
    181000   295.20327      0.021145685    8.6603382      732.40746     -113.93241      618.47505    
    182000   293.01215      0.021145685    9.530092       726.97123     -111.68165      615.28957    
    183000   291.66237      0.021145685    6.1496289      723.62239     -111.68929      611.9331     
    184000   299.94424      0.021145685    9.2163148      744.16992     -112.86633      631.30359    
    185000   299.66174      0.021145685    10.988757      743.46905     -112.04032      631.42872    
    186000   312.662        0.021145685    16.709439      775.72305     -110.21461      665.50844    
    187000   306.85732      0.021145685    9.8151238      761.32146     -106.18292      655.13854    
    188000   309.65194      0.021145685    9.7022723      768.25499     -110.65503      657.59997    
    189000   295.99385      0.021145685    10.889582      734.36891     -101.6502       632.7187     
    190000   300.8125       0.021145685    11.643071      746.32411     -99.707127      646.61698    
    191000   300.17617      0.021145685    9.5819969      744.74536     -98.07468       646.67068    
    192000   295.72338      0.021145685    10.489766      733.69786     -100.49036      633.20751    
    193000   291.33379      0.021145685    10.069037      722.80716     -101.61211      621.19506    
    194000   319.54636      0.021145685    11.647116      792.80333     -97.391616      695.41171    
    195000   300.55229      0.021145685    8.8113015      745.67852     -102.38783      643.29069    
    196000   293.21055      0.021145685    10.80419       727.46346     -106.36605      621.09741    
    197000   293.45773      0.021145685    8.2140362      728.07672     -106.80371      621.27301    
    198000   315.76764      0.021145685    11.006757      783.42821     -104.96661      678.4616     
    199000   302.25019      0.021145685    11.547079      749.89105     -102.74899      647.14206    
    200000   292.01759      0.021145685    10.473505      724.50369     -102.31655      622.18714    
    201000   301.44232      0.021145685    5.1423941      747.88671     -99.825564      648.06115    
    202000   319.70457      0.021145685    12.927154      793.19586     -98.903294      694.29256    
    203000   294.18144      0.021145685    10.617796      729.87226     -103.76467      626.10759    
    204000   296.63993      0.021145685    10.987017      735.97184     -103.19798      632.77386    
    205000   309.10164      0.021145685    10.801588      766.88968     -101.47861      665.41107    
    206000   308.14681      0.021145685    8.1716196      764.52072     -98.838775      665.68195    
    207000   296.7712       0.021145685    9.5885024      736.29753     -94.63631       641.66121    
    208000   297.62761      0.021145685    16.243904      738.42231     -103.24771      635.17459    
    209000   300.0019       0.021145685    9.9994924      744.31299     -99.108213      645.20477    
    210000   300.84806      0.021145685    13.829848      746.41232     -91.445281      654.96704    
    211000   296.70276      0.021145685    6.7394984      736.12774     -93.147865      642.97987    
    212000   306.88257      0.021145685    11.150904      761.38412     -87.171927      674.21219    
    213000   299.62629      0.021145685    15.558376      743.38108     -82.940767      660.44031    
    214000   307.45561      0.021145685    15.614408      762.80585     -88.321227      674.48463    
    215000   298.54279      0.021145685    10.445907      740.6929      -88.654671      652.03823    
    216000   293.08103      0.021145685    10.497156      727.14212     -83.44471       643.69741    
    217000   312.012        0.021145685    11.575081      774.11038     -81.336406      692.77397    
    218000   305.9268       0.021145685    13.806692      759.01283     -76.937809      682.07502    
    219000   280.03931      0.021145685    11.460574      694.78526     -78.69878       616.08648    
    220000   288.67434      0.021145685    7.4286795      716.209       -92.007357      624.20165    
    221000   309.72859      0.021145685    9.0299459      768.44516     -93.658843      674.78632    
    222000   303.43184      0.021145685    11.766394      752.82277     -89.477867      663.3449     
    223000   295.08697      0.021145685    15.044331      732.11891     -84.642571      647.47634    
    224000   284.07457      0.021145685    9.344057       704.79684     -91.64128       613.15556    
    225000   302.02243      0.021145685    8.4004758      749.32597     -87.735501      661.59047    
    226000   303.05043      0.021145685    11.191305      751.87648     -75.294989      676.58149    
    227000   305.01414      0.021145685    14.441793      756.74849     -78.902047      677.84644    
    228000   306.79313      0.021145685    9.7336273      761.16222     -80.369765      680.79246    
    229000   290.85166      0.021145685    11.301578      721.61099     -79.451535      642.15945    
    230000   293.57576      0.021145685    10.441228      728.36955     -81.912768      646.45678    
    231000   298.23884      0.021145685    12.56251       739.93878     -82.844252      657.09452    
    232000   294.67174      0.021145685    10.391387      731.08872     -85.774541      645.31417    
    233000   311.86774      0.021145685    12.671113      773.75246     -85.180097      688.57236    
    234000   300.7503       0.021145685    11.000155      746.16979     -87.214498      658.95529    
    235000   287.18612      0.021145685    6.4653252      712.51669     -84.408524      628.10817    
    236000   308.47834      0.021145685    1.3463717      765.34327     -84.730364      680.61291    
    237000   306.39365      0.021145685    11.46122       760.17109     -74.07778       686.09331    
    238000   300.64394      0.021145685    13.922793      745.90591     -82.390327      663.51559    
    239000   297.62942      0.021145685    10.119988      738.42679     -79.72356       658.70323    
    240000   304.7647       0.021145685    9.1386059      756.12961     -72.843475      683.28613    
    241000   307.28395      0.021145685    12.210771      762.37995     -80.479452      681.9005     
    242000   286.84583      0.021145685    17.44838       711.67241     -77.014355      634.65805    
    243000   297.20208      0.021145685    4.7850183      737.36656     -79.989977      657.37658    
    244000   320.51456      0.021145685    15.352196      795.20546     -79.837562      715.3679     
    245000   294.11107      0.021145685    12.871409      729.69766     -83.993955      645.70371    
    246000   279.10322      0.021145685    8.3640094      692.46277     -82.385602      610.07717    
    247000   297.40267      0.021145685    0.39182432     737.86422     -83.185482      654.67874    
    248000   312.57868      0.021145685    10.576724      775.51633     -76.419238      699.09709    
    249000   307.36289      0.021145685    14.818704      762.57581     -75.249679      687.32613    
    250000   296.83089      0.021145685    11.6224        736.44561     -71.187186      665.25843    
    251000   294.53868      0.021145685    7.2280695      730.75859     -65.916795      664.84179    
    252000   295.57912      0.021145685    10.557886      733.33994     -70.461999      662.87794    
    253000   301.39982      0.021145685    12.482442      747.78126     -63.913624      683.86764    
    254000   302.4418       0.021145685    10.90531       750.36643     -65.73335       684.63308    
    255000   299.06108      0.021145685    9.4862362      741.97879     -71.08194       670.89685    
    256000   310.56963      0.021145685    18.251656      770.5318      -65.843827      704.68798    
    257000   290.74589      0.021145685    12.303404      721.34857     -70.918491      650.43008    
    258000   314.89704      0.021145685    8.9393392      781.26823     -69.568486      711.69975    
    259000   298.33732      0.021145685    11.37598       740.18311     -69.014869      671.16824    
    260000   309.92925      0.021145685    16.526883      768.943       -62.688213      706.25479    
    261000   290.77137      0.021145685    10.954741      721.41179     -68.79445       652.61734    
    262000   290.95255      0.021145685    8.7013354      721.86131     -73.036114      648.82519    
    263000   311.65309      0.021145685    11.110595      773.21992     -67.291097      705.92882    
    264000   298.47468      0.021145685    15.365219      740.5239      -61.963766      678.56013    
    265000   294.38524      0.021145685    10.778967      730.3779      -60.530271      669.84763    
    266000   298.71053      0.021145685    12.804764      741.10906     -63.167767      677.94129    
    267000   300.56226      0.021145685    11.812976      745.70325     -65.836814      679.86644    
    268000   309.46557      0.021145685    6.1525859      767.7926      -62.925975      704.86662    
    269000   300.75301      0.021145685    11.233137      746.17652     -63.608336      682.56818    
    270000   283.7787       0.021145685    10.667521      704.06277     -63.56011       640.50266    
    271000   297.23172      0.021145685    10.85367       737.4401      -58.425239      679.01486    
    272000   311.82105      0.021145685    12.607462      773.63662     -59.214282      714.42234    
    273000   295.8243       0.021145685    8.3827789      733.94825     -61.319695      672.62856    
    274000   297.99803      0.021145685    9.8376102      739.34132     -53.513469      685.82785    
    275000   306.37538      0.021145685    13.480578      760.12576     -55.646646      704.47912    
    276000   299.08938      0.021145685    11.801299      742.049       -58.174525      683.87448    
    277000   297.30786      0.021145685    8.6797019      737.629       -60.751493      676.87751    
    278000   323.62457      0.021145685    12.270802      802.92149     -58.579975      744.34151    
    279000   291.52479      0.021145685    15.193554      723.28105     -65.703479      657.57757    
    280000   303.7195       0.021145685    8.3278683      753.53646     -62.126907      691.40956    
    281000   312.43298      0.021145685    5.5673315      775.15484     -60.367446      714.78739    
    282000   300.66112      0.021145685    15.505332      745.94852     -62.645243      683.30328    
    283000   303.95106      0.021145685    18.051486      754.11097     -62.070493      692.04048    
    284000   292.46459      0.021145685    17.557892      725.6127      -56.711407      668.9013     
    285000   290.04981      0.021145685   -0.40623144     719.62158     -56.320753      663.30083    
    286000   308.6327       0.021145685   -15.97175       765.72623     -55.123875      710.60236    
    287000   308.11089      0.021145685    15.905343      764.4316      -54.396711      710.03489    
    288000   283.07612      0.021145685    1.4006104      702.31965     -52.575338      649.74431    
    289000   293.41849      0.021145685    8.5006964      727.97936     -55.889066      672.09029    
    290000   309.14253      0.021145685    8.0918989      766.99115     -57.094574      709.89657    
    291000   307.56774      0.021145685    20.835916      763.08405     -50.262346      712.8217     
    292000   290.04575      0.021145685    12.716303      719.6115      -50.761396      668.85011    
    293000   305.94936      0.021145685    9.2436287      759.06879     -55.740048      703.32875    
    294000   305.4222       0.021145685    10.513983      757.76089     -52.975713      704.78518    
    295000   298.09106      0.021145685    13.595229      739.57214     -48.934394      690.63774    
    296000   294.62951      0.021145685    15.666303      730.98395     -55.99256       674.99138    
    297000   297.68615      0.021145685    8.8154047      738.56756     -57.080715      681.48684    
    298000   286.8762       0.021145685    12.860115      711.74776     -54.418363      657.32939    
    299000   292.69041      0.021145685   -1.3137267      726.17298     -53.890543      672.28244    
    300000   310.12635      0.021145685    13.264566      769.43202     -49.668018      719.764      
    301000   299.00983      0.021145685    13.735507      741.85162     -47.940487      693.91113    
    302000   300.35824      0.021145685    11.313448      745.19708     -48.887844      696.30923    
    303000   297.91259      0.021145685    7.7641875      739.12934     -47.714316      691.41503    
    304000   291.80903      0.021145685    7.4646617      723.98625     -47.413152      676.5731     
    305000   299.66998      0.021145685    14.784366      743.48947     -48.825633      694.66384    
    306000   305.83024      0.021145685    12.791606      758.77325     -45.913865      712.85938    
    307000   300.48514      0.021145685    13.600964      745.51191     -48.010868      697.50104    
    308000   291.17835      0.021145685   -1.3839104      722.42151     -49.593022      672.82849    
    309000   300.98829      0.021145685    3.086144       746.76025     -47.851334      698.90892    
    310000   303.0158       0.021145685    8.2693439      751.79056     -47.311202      704.47936    
    311000   299.06535      0.021145685    14.136415      741.98937     -43.9081        698.08127    
    312000   293.78805      0.021145685    9.1346113      728.89625     -51.212021      677.68423    
    313000   295.82698      0.021145685    11.198544      733.9549      -46.698492      687.25641    
    314000   304.99721      0.021145685    10.447909      756.70648     -49.65348       707.053      
    315000   308.37825      0.021145685    14.105246      765.09495     -46.52617       718.56878    
    316000   297.10092      0.021145685    11.801573      737.11557     -44.369884      692.74569    
    317000   293.6488       0.021145685    6.4844542      728.55077     -47.218982      681.33179    
    318000   306.44819      0.021145685    11.349153      760.30641     -52.130086      708.17632    
    319000   292.69802      0.021145685    15.434973      726.19185     -52.274451      673.9174     
    320000   299.05298      0.021145685    12.822966      741.95868     -56.135868      685.82281    
    321000   299.88176      0.021145685    8.0914002      744.01492     -52.550956      691.46397    
    322000   306.91968      0.021145685    7.1891828      761.47618     -54.219538      707.25664    
    323000   291.20752      0.021145685    13.275863      722.49388     -54.258902      668.23498    
    324000   287.94921      0.021145685    18.987576      714.40993     -53.580405      660.82952    
    325000   296.56592      0.021145685    8.5499289      735.78823     -56.117641      679.67059    
    326000   306.90176      0.021145685    9.1239787      761.43173     -50.42169       711.01004    
    327000   296.05751      0.021145685    14.903013      734.52684     -54.171174      680.35567    
    328000   286.71973      0.021145685    7.6261131      711.35956     -57.600075      653.75948    
    329000   309.66657      0.021145685    8.211841       768.29129     -53.739095      714.5522     
    330000   312.73158      0.021145685    13.842943      775.89566     -55.448248      720.44741    
    331000   290.82592      0.021145685    6.3304557      721.54713     -53.960508      667.58662    
    332000   299.13532      0.021145685    2.5283267      742.16298     -54.519825      687.64316    
    333000   305.62923      0.021145685    13.219062      758.27455     -48.215965      710.05859    
    334000   295.65316      0.021145685    9.6443289      733.52365     -49.771103      683.75255    
    335000   305.19452      0.021145685    9.0582799      757.19602     -51.549387      705.64663    
    336000   299.2891       0.021145685    11.167185      742.5445      -44.232164      698.31234    
    337000   315.97945      0.021145685    16.689272      783.95372     -47.857657      736.09606    
    338000   284.91421      0.021145685    12.200613      706.88        -47.077996      659.80201    
    339000   293.55797      0.021145685    9.6906443      728.3254      -48.141212      680.18419    
    340000   312.61788      0.021145685    10.063861      775.61357     -50.324554      725.28902    
    341000   302.45782      0.021145685    10.705579      750.40619     -55.252476      695.15371    
    342000   296.97015      0.021145685    17.239756      736.79112     -52.410914      684.38021    
    343000   306.26342      0.021145685    10.932246      759.84798     -50.074603      709.77338    
    344000   299.76618      0.021145685   -3.9134801      743.72816     -47.6533        696.07486    
    345000   300.19125      0.021145685    14.637916      744.78276     -42.652008      702.13075    
    346000   306.53526      0.021145685    18.016163      760.52242     -44.933093      715.58933    
    347000   304.03814      0.021145685    8.2078671      754.32702     -46.67883       707.64819    
    348000   298.89663      0.021145685   -1.8981296      741.57078     -41.776944      699.79384    
    349000   299.66926      0.021145685    12.02075       743.48769     -51.113454      692.37424    
    350000   289.28106      0.021145685    14.123428      717.71429     -48.76336       668.95093    
    351000   300.6991       0.021145685    6.8598662      746.04276     -49.245169      696.79759    
    352000   307.13671      0.021145685    11.751979      762.01464     -48.988921      713.02572    
    353000   282.64019      0.021145685    10.674952      701.23811     -44.360673      656.87744    
    354000   302.06947      0.021145685    10.448567      749.44267     -50.987033      698.45564    
    355000   314.64392      0.021145685    12.348161      780.64024     -45.947876      734.69237    
    356000   293.09469      0.021145685    13.642556      727.176       -45.350318      681.82568    
    357000   287.85612      0.021145685    12.52671       714.17896     -45.170853      669.00811    
    358000   305.69321      0.021145685    2.2130226      758.43328     -44.276922      714.15636    
    359000   306.07032      0.021145685    10.218736      759.36891     -40.230707      719.1382     
    360000   307.22414      0.021145685    18.280682      762.23156     -41.220021      721.01154    
    361000   297.83907      0.021145685    10.980015      738.94694     -41.155832      697.79111    
    362000   279.30542      0.021145685    5.83938        692.96445     -46.337666      646.62678    
    363000   312.15717      0.021145685    10.278736      774.47055     -42.541074      731.92948    
    364000   301.54343      0.021145685    11.275575      748.13756     -48.669703      699.46786    
    365000   289.59653      0.021145685    11.528159      718.49697     -54.263331      664.23364    
    366000   303.39673      0.021145685    12.385911      752.73565     -44.079767      708.65588    
    367000   317.1026       0.021145685    10.61951       786.74029     -46.712049      740.02824    
    368000   300.29965      0.021145685    11.913386      745.05172     -48.180941      696.87078    
    369000   295.32451      0.021145685    10.426383      732.70825     -48.438347      684.2699     
    370000   294.81547      0.021145685    11.648099      731.4453      -47.562487      683.88281    
    371000   307.2728       0.021145685    11.512037      762.35228     -47.815983      714.53629    
    372000   297.24865      0.021145685    6.6282376      737.48209     -46.859014      690.62307    
    373000   283.0409       0.021145685    12.099653      702.23227     -48.990477      653.24179    
    374000   299.1198       0.021145685    11.316746      742.12448     -52.422542      689.70194    
    375000   308.04681      0.021145685    9.9951607      764.27262     -51.901121      712.3715     
    376000   288.45121      0.021145685    8.0865934      715.6554      -53.893783      661.76162    
    377000   288.11859      0.021145685    12.452821      714.83017     -48.09751       666.73266    
    378000   299.05245      0.021145685    16.485483      741.95737     -48.322377      693.63499    
    379000   312.87801      0.021145685    10.61895       776.25898     -44.078803      732.18017    
    380000   297.98737      0.021145685   -0.23562359     739.31489     -40.746043      698.56885    
    381000   286.33127      0.021145685    14.909886      710.39578     -43.843059      666.55272    
    382000   290.70163      0.021145685    29.108532      721.23876     -49.940043      671.29872    
    383000   314.52299      0.021145685    8.8772429      780.34021     -53.218157      727.12205    
    384000   302.00968      0.021145685    9.7811394      749.29434     -50.458361      698.83598    
    385000   305.86345      0.021145685    11.210592      758.85564     -49.361158      709.49448    
    386000   298.01967      0.021145685    10.625904      739.39502     -42.923413      696.47161    
    387000   297.78862      0.021145685    11.246811      738.82177     -48.095513      690.72625    
    388000   299.50752      0.021145685    10.908815      743.08641     -44.947943      698.13847    
    389000   304.92382      0.021145685    16.862529      756.52441     -38.448124      718.07628    
    390000   301.74169      0.021145685    2.9518621      748.62945     -47.037438      701.59201    
    391000   296.76538      0.021145685    14.3079        736.2831      -50.877453      685.40565    
    392000   301.60991      0.021145685    11.22986       748.3025      -49.849549      698.45295    
    393000   290.88803      0.021145685    0.94672984     721.70123     -50.154787      671.54644    
    394000   298.00287      0.021145685    11.40873       739.35333     -54.283348      685.06999    
    395000   301.12415      0.021145685    13.20414       747.09731     -54.358735      692.73857    
    396000   302.67087      0.021145685    13.460721      750.93478     -54.890089      696.04469    
    397000   306.36021      0.021145685    13.922117      760.08814     -51.449843      708.63829    
    398000   317.61662      0.021145685    1.4088595      788.01559     -51.02969       736.9859     
    399000   297.71245      0.021145685    6.3506598      738.6328      -51.921518      686.71128    
    400000   296.06433      0.021145685    14.567618      734.54377     -48.977322      685.56644    
    401000   321.50153      0.021145685    8.5987098      797.65417     -44.792372      752.8618     
    402000   317.03842      0.021145685    21.291129      786.58105     -45.107497      741.47355    
    403000   288.75647      0.021145685    6.0678071      716.41277     -45.679079      670.73369    
    404000   299.48969      0.021145685    19.094016      743.04218     -46.875678      696.16651    
    405000   312.85456      0.021145685    8.0329         776.2008      -42.561532      733.63927    
    406000   295.56389      0.021145685    4.5588266      733.30217     -44.251049      689.05112    
    407000   289.74948      0.021145685    10.331705      718.87645     -45.313284      673.56316    
    408000   304.13342      0.021145685    21.013616      754.5634      -50.164003      704.3994     
    409000   314.06999      0.021145685    3.6742374      779.21631     -47.228319      731.98799    
    410000   294.92113      0.021145685    3.4860778      731.70745     -43.195347      688.51211    
    411000   292.15633      0.021145685    6.4916024      724.84791     -42.812208      682.0357     
    412000   305.15216      0.021145685    17.030982      757.09091     -42.656216      714.43469    
    413000   298.67778      0.021145685    12.30536       741.0278      -46.821693      694.20611    
    414000   303.74263      0.021145685    12.535576      753.59383     -46.671635      706.9222     
    415000   313.38766      0.021145685    11.415437      777.52342     -48.57797       728.94545    
    416000   285.06073      0.021145685    6.6823243      707.24353     -50.526091      656.71744    
    417000   290.78406      0.021145685    14.119013      721.44326     -45.809191      675.63407    
    418000   312.53159      0.021145685    20.28448       775.39948     -43.285025      732.11446    
    419000   306.66833      0.021145685    8.6735845      760.85259     -41.63829       719.2143     
    420000   290.18265      0.021145685   -0.44973026     719.95116     -43.143752      676.80741    
    421000   298.81056      0.021145685    10.547462      741.35725     -43.070091      698.28716    
    422000   295.92713      0.021145685    15.105437      734.20338     -38.299266      695.90411    
    423000   317.83333      0.021145685    22.731236      788.55324     -37.960448      750.5928     
    424000   301.24253      0.021145685    6.9971735      747.39103     -40.915221      706.47581    
    425000   300.01923      0.021145685   -2.009594       744.35598     -41.431451      702.92453    
    426000   293.2001       0.021145685    0.67356568     727.43753     -39.624085      687.81345    
    427000   282.31681      0.021145685    8.5623359      700.4358      -39.031377      661.40442    
    428000   299.16871      0.021145685    16.040041      742.24583     -38.604406      703.64142    
    429000   314.15931      0.021145685    15.99504       779.43792     -40.581412      738.8565     
    430000   295.15001      0.021145685    13.34478       732.27532     -38.347325      693.92799    
    431000   302.8008       0.021145685    3.9346344      751.25714     -39.971605      711.28553    
    432000   290.31928      0.021145685   -8.8476193      720.29013     -44.859926      675.43021    
    433000   298.80324      0.021145685    12.219796      741.33906     -45.340289      695.99878    
    434000   319.17585      0.021145685    24.295287      791.88407     -42.972755      748.91132    
    435000   303.81666      0.021145685    5.576807       753.7775      -40.339371      713.43813    
    436000   289.55662      0.021145685    14.432929      718.39795     -42.520765      675.87718    
    437000   301.78129      0.021145685    13.052283      748.72771     -39.486687      709.24102    
    438000   298.77683      0.021145685    7.0677479      741.27355     -39.522445      701.7511     
    439000   308.21194      0.021145685    7.5940866      764.68232     -36.871683      727.81063    
    440000   280.66459      0.021145685    18.359333      696.33658     -37.106077      659.2305     
    441000   295.75774      0.021145685    13.893035      733.7831      -36.476034      697.30706    
    442000   316.14829      0.021145685    18.43993       784.37263     -38.53447       745.83816    
    443000   315.43953      0.021145685    5.9897945      782.61418     -36.453439      746.16074    
    444000   292.72812      0.021145685    5.7280797      726.26653     -36.493882      689.77265    
    445000   294.48643      0.021145685    13.208102      730.62895     -37.082583      693.54636    
    446000   306.23218      0.021145685    14.519106      759.77048     -37.661033      722.10944    
    447000   307.2446       0.021145685    9.133247       762.28233     -36.951416      725.33092    
    448000   284.17877      0.021145685    10.946616      705.05535     -38.197464      666.85789    
    449000   297.13937      0.021145685    11.737731      737.21096     -38.059795      699.15116    
    450000   303.83978      0.021145685    12.065362      753.83487     -40.518486      713.31638    
    451000   317.01472      0.021145685    14.496288      786.52225     -34.123761      752.39849    
    452000   298.49862      0.021145685    10.925126      740.58331     -37.825647      702.75766    
    453000   295.854        0.021145685    11.086087      734.02193     -36.316605      697.70533    
    454000   298.64708      0.021145685    12.518081      740.95164     -36.921854      704.02979    
    455000   300.45361      0.021145685    10.088657      745.43369     -38.349628      707.08406    
    456000   304.21425      0.021145685    11.844733      754.76394     -43.547849      711.21609    
    457000   297.68489      0.021145685    8.4068475      738.56441     -45.833348      692.73106    
    458000   289.10286      0.021145685    11.305261      717.27218     -44.817654      672.45452    
    459000   300.27187      0.021145685    7.412729       744.98279     -41.735183      703.24761    
    460000   315.53185      0.021145685    11.574312      782.84321     -41.178238      741.66497    
    461000   286.16042      0.021145685    9.6717512      709.97189     -42.010418      667.96147    
    462000   288.58071      0.021145685    9.6344227      715.97671     -44.820843      671.15586    
    463000   303.57427      0.021145685    11.390961      753.17613     -42.666146      710.50999    
    464000   300.42734      0.021145685    10.77107       745.36852     -46.455969      698.91255    
    465000   295.45337      0.021145685    12.301458      733.02794     -40.69678       692.33117    
    466000   302.68403      0.021145685    12.995377      750.96742     -40.838571      710.12885    
    467000   299.54013      0.021145685    9.954639       743.16731     -40.956094      702.21122    
    468000   303.77814      0.021145685    11.088865      753.68195     -36.278801      717.40315    
    469000   299.54739      0.021145685    11.33756       743.18534     -33.376428      709.80891    
    470000   291.07976      0.021145685    12.276811      722.1769      -32.329168      689.84773    
    471000   304.28781      0.021145685    11.876025      754.94646     -36.470589      718.47587    
    472000   303.25875      0.021145685    10.940286      752.39332     -44.654312      707.73901    
    473000   297.74509      0.021145685    12.96133       738.71377     -38.810745      699.90303    
    474000   283.74509      0.021145685    10.269547      703.97938     -36.518763      667.46062    
    475000   289.59478      0.021145685    10.688266      718.49262     -35.620381      682.87224    
    476000   309.08123      0.021145685    15.940833      766.83905     -38.563001      728.27605    
    477000   297.67079      0.021145685    11.03469       738.52944     -32.009233      706.52021    
    478000   306.06984      0.021145685    8.1703478      759.36772     -40.166404      719.20132    
    479000   300.37885      0.021145685    17.282173      745.2482      -34.105857      711.14234    
    480000   305.29434      0.021145685    13.917522      757.44368     -41.679916      715.76376    
    481000   297.60605      0.021145685    7.0882752      738.36881     -45.845611      692.5232     
    482000   292.09519      0.021145685    9.4776943      724.69621     -44.473397      680.22281    
    483000   305.08935      0.021145685    13.750695      756.93509     -41.315248      715.61984    
    484000   298.32924      0.021145685    14.950047      740.16306     -40.220679      699.94238    
    485000   309.68602      0.021145685    11.505462      768.33956     -41.115523      727.22404    
    486000   303.74032      0.021145685    8.6217966      753.58812     -46.207812      707.3803     
    487000   291.70309      0.021145685    13.010153      723.72341     -35.772004      687.95141    
    488000   304.98596      0.021145685    13.501389      756.67857     -33.674172      723.0044     
    489000   307.3633       0.021145685    11.500376      762.57682     -33.479941      729.09688    
    490000   298.22618      0.021145685    10.615391      739.90738     -34.911295      704.99609    
    491000   285.48703      0.021145685    10.206976      708.30119     -35.30054       673.00065    
    492000   307.77808      0.021145685    8.5810219      763.60589     -31.217416      732.38847    
    493000   318.34069      0.021145685    11.157141      789.81202     -29.083355      760.72867    
    494000   297.53366      0.021145685    13.029534      738.18922     -29.087715      709.1015     
    495000   292.6945       0.021145685    10.420006      726.18312     -34.046829      692.13629    
    496000   311.72937      0.021145685    9.1689543      773.40915     -37.639572      735.76958    
    497000   304.80311      0.021145685    17.371232      756.22492     -40.988512      715.23641    
    498000   284.99958      0.021145685    7.3414638      707.09181     -39.953418      667.1384     
    499000   289.30144      0.021145685    5.1322363      717.76485     -35.307506      682.45734    
    500000   303.20094      0.021145685    12.305713      752.2499      -33.522712      718.72719    
    501000   302.64238      0.021145685    12.735869      750.86409     -33.613534      717.25056    
    502000   310.00825      0.021145685    15.225302      769.13902     -33.783545      735.35547    
    503000   289.70893      0.021145685    14.621208      718.77584     -36.338643      682.4372     
    504000   293.20573      0.021145685    11.337915      727.45151     -38.041563      689.40995    
    505000   305.57363      0.021145685    0.037974691    758.13659     -34.845098      723.2915     
    506000   317.64168      0.021145685    7.9781519      788.07775     -42.958366      745.11939    
    507000   299.07776      0.021145685    44.004415      742.02017     -41.150219      700.86995    
    508000   291.03519      0.021145685    10.378131      722.06634     -41.095164      680.97118    
    509000   307.95899      0.021145685    5.324213       764.05475     -45.540152      718.5146     
    510000   309.95507      0.021145685    15.789577      769.00707     -40.522435      728.48464    
    511000   297.92295      0.021145685    16.714673      739.15504     -33.737852      705.41719    
    512000   292.99743      0.021145685   -3.8586651      726.93469     -34.241463      692.69323    
    513000   308.12075      0.021145685    7.5816217      764.45607     -32.676272      731.7798     
    514000   295.7461       0.021145685    28.147104      733.75423     -32.207903      701.54633    
    515000   294.25768      0.021145685    6.6802144      730.06141     -36.799087      693.26232    
    516000   306.04156      0.021145685    10.132687      759.29755     -29.459471      729.83808    
    517000   307.1927       0.021145685    23.151699      762.15354     -31.267372      730.88617    
    518000   295.98504      0.021145685    12.549819      734.34703     -29.37845       704.96858    
    519000   294.07128      0.021145685    5.3605049      729.59894     -27.131388      702.46755    
    520000   304.36837      0.021145685    10.624706      755.14631     -30.627646      724.51866    
    521000   304.27934      0.021145685    15.129608      754.92542     -30.805192      724.12023    
    522000   298.36099      0.021145685    14.489977      740.24184     -33.504327      706.73751    
    523000   290.89606      0.021145685    10.84376       721.72114     -30.822385      690.89876    
    524000   310.53277      0.021145685    13.635936      770.44036     -33.789594      736.65077    
    525000   311.83324      0.021145685    11.241529      773.66686     -40.586665      733.0802     
    526000   291.78115      0.021145685    11.189699      723.91709     -37.690525      686.22656    
    527000   283.66009      0.021145685    9.8294696      703.76851     -36.121437      667.64707    
    528000   303.53952      0.021145685    12.742938      753.08991     -29.067791      724.02212    
    529000   304.63761      0.021145685    11.218469      755.8143      -32.136672      723.67763    
    530000   303.16625      0.021145685    11.86396       752.16382     -36.969223      715.19459    
    531000   304.10727      0.021145685    9.7397216      754.49853     -35.900832      718.5977     
    532000   298.29546      0.021145685    11.291652      740.07925     -39.736607      700.34264    
    533000   314.75861      0.021145685    19.653823      780.92479     -40.215294      740.7095     
    534000   303.83514      0.021145685    8.8342381      753.82336     -38.52202       715.30134    
    535000   293.00764      0.021145685    6.7952643      726.96003     -45.102342      681.85768    
    536000   298.88291      0.021145685    18.223798      741.53673     -48.125571      693.41116    
    537000   308.60384      0.021145685    9.3286211      765.65463     -40.350309      725.30432    
    538000   288.41182      0.021145685    7.3412125      715.55768     -36.814948      678.74274    
    539000   291.41599      0.021145685    19.893762      723.0111      -44.13979       678.87131    
    540000   315.493        0.021145685    18.114571      782.74683     -34.430276      748.31655    
    541000   302.23892      0.021145685    2.1936978      749.86309     -36.421797      713.44129    
    542000   288.17922      0.021145685   -5.6794156      714.98059     -38.35658       676.62401    
    543000   310.44291      0.021145685    9.1749094      770.21741     -33.175623      737.04178    
    544000   302.80069      0.021145685    8.0262791      751.25686     -34.583662      716.6732     
    545000   292.42026      0.021145685    14.106869      725.50273     -36.776808      688.72592    
    546000   300.68441      0.021145685    20.058734      746.00632     -37.055028      708.95129    
    547000   305.84681      0.021145685    1.0157588      758.81436     -37.148778      721.66558    
    548000   288.1047       0.021145685    15.031808      714.7957      -41.884795      672.91091    
    549000   299.26654      0.021145685    13.340424      742.48853     -45.739159      696.74938    
    550000   298.61837      0.021145685    7.2299261      740.8804      -43.439457      697.44094    
    551000   295.78802      0.021145685    5.2669445      733.85822     -39.14491       694.71331    
    552000   293.75563      0.021145685    17.941845      728.81581     -38.096075      690.71973    
    553000   316.54193      0.021145685    3.8488617      785.34926     -40.085293      745.26397    
    554000   302.13544      0.021145685   -12.637825      749.60635     -32.474987      717.13136    
    555000   289.59511      0.021145685    12.333663      718.49345     -34.230286      684.26316    
    556000   288.74223      0.021145685    21.361975      716.37743     -42.191761      674.18567    
    557000   312.91582      0.021145685    19.380127      776.35277     -45.121147      731.23163    
    558000   298.39628      0.021145685   -5.7982773      740.3294      -41.217219      699.11219    
    559000   281.20935      0.021145685    14.877879      697.68816     -39.9352        657.75296    
    560000   310.1573       0.021145685    18.871122      769.50882     -40.607744      728.90108    
    561000   315.33568      0.021145685    1.702985       782.35651     -38.243788      744.11272    
    562000   307.66306      0.021145685    3.9494644      763.32052     -41.364969      721.95556    
    563000   295.2499       0.021145685    14.286326      732.52315     -39.802722      692.72043    
    564000   294.56643      0.021145685    26.578242      730.82744     -42.091838      688.7356     
    565000   301.97556      0.021145685    15.585825      749.20968     -41.033485      708.17619    
    566000   308.75615      0.021145685   -6.4784903      766.03252     -40.158943      725.87358    
    567000   300.55857      0.021145685    14.551902      745.69409     -41.817869      703.87622    
    568000   301.89424      0.021145685    24.561785      749.00794     -44.063607      704.94433    
    569000   299.01244      0.021145685    8.4413567      741.85811     -36.998631      704.85948    
    570000   306.68836      0.021145685    11.397995      760.90227     -34.513036      726.38923    
    571000   303.0611       0.021145685    21.722031      751.90294     -43.166278      708.73666    
    572000   298.44475      0.021145685    4.3213244      740.44964     -41.576683      698.87296    
    573000   293.97438      0.021145685    8.3072315      729.35855     -44.432949      684.9256     
    574000   308.1674       0.021145685    20.927028      764.57181     -42.277315      722.2945     
    575000   303.67882      0.021145685    13.125992      753.43553     -36.392678      717.04285    
    576000   303.60668      0.021145685    7.583799       753.25655     -35.968412      717.28814    
    577000   276.65292      0.021145685    10.536823      686.38351     -33.81464       652.56887    
    578000   302.94369      0.021145685    14.858711      751.61165     -32.054894      719.55675    
    579000   313.26137      0.021145685    0.58521766     777.21009     -38.658889      738.5512     
    580000   300.49819      0.021145685    11.764676      745.54429     -37.357257      708.18704    
    581000   296.46495      0.021145685    18.687283      735.53772     -42.723169      692.81455    
    582000   300.67866      0.021145685    8.8986743      745.99205     -38.608738      707.38331    
    583000   306.57618      0.021145685    7.3872087      760.62395     -42.590407      718.03354    
    584000   300.83942      0.021145685    10.529376      746.3909      -41.450251      704.94065    
    585000   290.36968      0.021145685    13.311108      720.41517     -41.072444      679.34273    
    586000   302.77702      0.021145685    12.649544      751.19813     -41.350476      709.84765    
    587000   301.40998      0.021145685    9.179785       747.80647     -42.262261      705.54421    
    588000   294.02346      0.021145685    9.3114447      729.4803      -40.834225      688.64608    
    589000   303.64638      0.021145685    9.206194       753.35504     -39.625527      713.72951    
    590000   310.98526      0.021145685    20.489025      771.56301     -39.060943      732.50207    
    591000   304.04615      0.021145685    14.809815      754.34687     -45.004903      709.34197    
    592000   290.83827      0.021145685    7.4903703      721.57777     -48.605059      672.97271    
    593000   295.84365      0.021145685    10.626167      733.99626     -45.423457      688.5728     
    594000   308.35804      0.021145685    14.451368      765.04479     -47.402285      717.6425     
    595000   293.08024      0.021145685    11.09515       727.14016     -41.324016      685.81615    
    596000   288.21606      0.021145685    9.055794       715.072       -36.625304      678.44669    
    597000   309.13712      0.021145685    12.642002      766.97771     -44.953143      722.02457    
    598000   305.23081      0.021145685    11.684031      757.28605     -40.883926      716.40213    
    599000   293.89719      0.021145685    9.8992757      729.16703     -37.287361      691.87966    
    600000   298.63466      0.021145685    11.091716      740.92082     -36.937944      703.98288    
    601000   300.78389      0.021145685    10.503895      746.25312     -38.918263      707.33485    
    602000   296.87356      0.021145685    7.4942557      736.55149     -36.24542       700.30607    
    603000   305.50871      0.021145685    8.8607019      757.97553     -35.877213      722.09832    
    604000   302.07788      0.021145685    13.02752       749.46354     -37.472654      711.99088    
    605000   300.4859       0.021145685    12.069597      745.5138      -43.177805      702.33599    
    606000   301.79856      0.021145685    10.432333      748.77053     -43.672799      705.09774    
    607000   289.57826      0.021145685    9.5562751      718.45165     -44.041176      674.41047    
    608000   282.69683      0.021145685    9.7543468      701.37863     -39.112447      662.26618    
    609000   310.8293       0.021145685    11.343509      771.17606     -40.396655      730.77941    
    610000   300.88775      0.021145685    9.9770588      746.51079     -38.139939      708.37085    
    611000   288.77463      0.021145685    10.991551      716.45783     -41.143117      675.31471    
    612000   308.91619      0.021145685    14.878919      766.42957     -38.611949      727.81762    
    613000   312.85315      0.021145685    11.177479      776.19728     -31.507839      744.68944    
    614000   287.8808       0.021145685    11.017895      714.24019     -34.269769      679.97043    
    615000   298.48646      0.021145685    12.315573      740.55312     -35.685961      704.86716    
    616000   307.33837      0.021145685    11.240896      762.51496     -36.246972      726.26799    
    617000   306.76186      0.021145685    12.219075      761.08464     -29.236483      731.84815    
    618000   297.7751       0.021145685    7.3579216      738.78822     -29.926022      708.8622     
    619000   302.48625      0.021145685    11.559116      750.47672     -29.40307       721.07365    
    620000   291.55903      0.021145685    11.519015      723.366       -28.027807      695.33819    
    621000   308.23824      0.021145685    12.510581      764.74757     -27.465741      737.28182    
    622000   298.95683      0.021145685    12.070639      741.72013     -28.646469      713.07366    
    623000   300.11709      0.021145685    11.560634      744.59878     -27.553049      717.04573    
    624000   291.81169      0.021145685    10.545912      723.99284     -27.66973       696.32312    
    625000   295.10632      0.021145685    11.188688      732.16692     -30.733445      701.43347    
    626000   307.09211      0.021145685    12.24978       761.90399     -32.792028      729.11197    
    627000   304.0883       0.021145685    9.1317338      754.45145     -30.940648      723.51081    
    628000   289.94334      0.021145685    11.020109      719.35743     -34.007434      685.35       
    629000   276.29727      0.021145685    13.264788      685.50114     -35.434263      650.06687    
    630000   309.4915       0.021145685    11.164757      767.85693     -37.584562      730.27237    
    631000   306.00716      0.021145685    10.29839       759.2122      -34.516759      724.69544    
    632000   297.54526      0.021145685    12.064881      738.218       -34.314417      703.90358    
    633000   305.18418      0.021145685    12.560485      757.17037     -34.240008      722.93036    
    634000   324.68031      0.021145685    11.42521       805.54081     -34.053573      771.48724    
    635000   300.39206      0.021145685    10.043514      745.28098     -32.037631      713.24334    
    636000   282.14287      0.021145685    8.7655951      700.00424     -29.34069       670.66355    
    637000   300.64356      0.021145685    15.354903      745.90497     -33.945554      711.95942    
    638000   315.28747      0.021145685    12.072034      782.23691     -35.025644      747.21127    
    639000   311.4202       0.021145685    8.7477089      772.64209     -43.328591      729.3135     
    640000   293.2889       0.021145685    11.760653      727.65784     -41.624586      686.03326    
    641000   295.55039      0.021145685    8.3613288      733.26866     -41.731209      691.53745    
    642000   308.49938      0.021145685    11.56324       765.39546     -44.025386      721.37007    
    643000   274.37346      0.021145685    8.4214896      680.72813     -40.686094      640.04204    
    644000   303.15563      0.021145685    12.082753      752.13747     -35.439207      716.69826    
    645000   308.11021      0.021145685    11.393637      764.42992     -37.778261      726.65166    
    646000   285.32608      0.021145685    11.076602      707.90188     -39.187619      668.71426    
    647000   291.97151      0.021145685    11.630807      724.38935     -39.865928      684.52343    
    648000   310.69183      0.021145685    14.069386      770.83499     -39.641208      731.19379    
    649000   305.08144      0.021145685    11.086024      756.91545     -42.77607       714.13938    
    650000   291.23496      0.021145685    10.03695       722.56196     -38.603055      683.9589     
    651000   285.88723      0.021145685    11.020573      709.2941      -34.944886      674.34921    
    652000   300.02156      0.021145685    12.089194      744.36177     -32.793085      711.56868    
    653000   315.45815      0.021145685    11.332109      782.66036     -34.754785      747.90558    
    654000   296.83476      0.021145685    11.766276      736.45523     -32.823966      703.63126    
    655000   279.98832      0.021145685    11.292923      694.65874     -36.137078      658.52167    
    656000   306.02224      0.021145685    10.270394      759.2496      -34.006665      725.24294    
    657000   311.06674      0.021145685    9.7909927      771.76517     -33.86505       737.90012    
    658000   305.15901      0.021145685    11.354624      757.10792     -39.314484      717.79343    
    659000   302.93008      0.021145685    14.501681      751.57787     -35.827844      715.75002    
    660000   302.28999      0.021145685    11.155102      749.98981     -35.851498      714.13831    
    661000   302.06867      0.021145685    7.5471072      749.44069     -35.028379      714.41231    
    662000   301.29903      0.021145685    13.149625      747.53119     -34.463807      713.06739    
    663000   292.12252      0.021145685    13.877406      724.76403     -33.92648       690.83755    
    664000   309.9471       0.021145685    11.886585      768.98729     -37.690087      731.29721    
    665000   300.39466      0.021145685    6.4729224      745.28744     -38.196884      707.09056    
    666000   295.64766      0.021145685    11.101985      733.50999     -34.20254       699.30745    
    667000   293.48974      0.021145685    13.530343      728.15613     -37.112027      691.0441     
    668000   299.03468      0.021145685    11.594773      741.91328     -37.640769      704.27251    
    669000   296.82861      0.021145685    8.9117116      736.43997     -37.830196      698.60978    
    670000   307.80154      0.021145685    10.939791      763.66411     -41.11058       722.55353    
    671000   305.65454      0.021145685    16.627138      758.33734     -35.994781      722.34256    
    672000   292.55217      0.021145685    14.335315      725.83        -34.569199      691.2608     
    673000   308.19412      0.021145685    12.661107      764.63811     -34.034602      730.60351    
    674000   304.98699      0.021145685    17.703242      756.68112     -38.073139      718.60798    
    675000   296.73454      0.021145685    15.617372      736.20658     -44.503945      691.70263    
    676000   294.14437      0.021145685    8.4582498      729.78028     -39.995707      689.78458    
    677000   307.28905      0.021145685    8.8731683      762.3926      -42.6709        719.7217     
    678000   300.38679      0.021145685    11.479778      745.26792     -43.061697      702.20622    
    679000   297.78187      0.021145685    18.52554       738.80502     -43.794766      695.01026    
    680000   295.70814      0.021145685    9.2625104      733.66006     -39.562598      694.09746    
    681000   310.93029      0.021145685    12.650616      771.42662     -39.927051      731.49957    
    682000   311.66964      0.021145685    13.056186      773.26097     -34.866499      738.39447    
    683000   298.97858      0.021145685    11.829824      741.77409     -35.011034      706.76306    
    684000   291.2341       0.021145685    10.77857       722.55982     -40.255321      682.3045     
    685000   304.23259      0.021145685    9.3600714      754.80945     -41.4664        713.34305    
    686000   295.58547      0.021145685    10.720487      733.35571     -36.88411       696.4716     
    687000   314.54928      0.021145685    14.221845      780.40543     -33.079509      747.32592    
    688000   303.19886      0.021145685    11.45521       752.24473     -35.558033      716.6867     
    689000   290.17622      0.021145685    8.3003461      719.93521     -35.433056      684.50215    
    690000   309.85992      0.021145685    11.109436      768.77099     -38.036944      730.73405    
    691000   289.12315      0.021145685    18.321742      717.32251     -34.909776      682.41274    
    692000   291.04613      0.021145685    9.0840744      722.09346     -29.035257      693.0582     
    693000   312.68447      0.021145685    13.719103      775.7788      -29.285809      746.49299    
    694000   307.67686      0.021145685    18.548501      763.35476     -34.145534      729.20923    
    695000   298.0811       0.021145685    6.9987535      739.54742     -32.15314       707.39428    
    696000   301.85527      0.021145685    4.2397241      748.91124     -31.657196      717.25405    
    697000   305.40398      0.021145685    15.098274      757.71569     -36.646834      721.06885    
    698000   292.25423      0.021145685    10.940361      725.09081     -34.564849      690.52596    
    699000   298.73951      0.021145685    9.6042702      741.18097     -32.556001      708.62497    
    700000   305.43988      0.021145685    6.1614469      757.80477     -31.896534      725.90824    
    701000   305.23194      0.021145685    11.080483      757.28887     -30.196999      727.09187    
    702000   295.59952      0.021145685    12.679883      733.39055     -28.39574       704.99481    
    703000   302.54601      0.021145685    10.669614      750.625       -30.972291      719.65271    
    704000   304.85595      0.021145685    11.14654       756.35603     -29.777362      726.57866    
    705000   297.8681       0.021145685    11.474989      739.01898     -31.543858      707.47512    
    706000   302.43877      0.021145685    13.547774      750.35893     -34.635498      715.72343    
    707000   297.59882      0.021145685    7.6202583      738.35089     -38.949704      699.40118    
    708000   302.40136      0.021145685    10.836602      750.26612     -30.978418      719.2877     
    709000   286.72208      0.021145685    10.273021      711.36539     -26.213219      685.15217    
    710000   308.21848      0.021145685    10.510994      764.69855     -26.194732      738.50382    
    711000   312.9615       0.021145685    7.395197       776.46611     -27.004929      749.46118    
    712000   287.48368      0.021145685    10.811761      713.25494     -29.03351       684.22143    
    713000   294.78465      0.021145685    18.43136       731.36885     -28.370321      702.99853    
    714000   313.16855      0.021145685    10.881104      776.9798      -29.861712      747.11808    
    715000   295.51916      0.021145685    11.800403      733.19118     -30.720578      702.4706     
    716000   284.00421      0.021145685    9.8361006      704.62227     -31.092683      673.52958    
    717000   295.87713      0.021145685    11.620534      734.07931     -35.650579      698.42873    
    718000   318.20607      0.021145685    11.393118      789.47804     -35.101012      754.37703    
    719000   297.56432      0.021145685    15.064123      738.26527     -29.800829      708.46444    
    720000   286.92765      0.021145685    19.781198      711.87542     -26.358838      685.51658    
    721000   298.53264      0.021145685    11.06131       740.66771     -31.541497      709.12621    
    722000   309.04179      0.021145685    10.1475        766.74119     -32.710692      734.0305     
    723000   299.56734      0.021145685    11.766054      743.23483     -33.458552      709.77628    
    724000   283.89272      0.021145685    12.807651      704.34567     -26.759017      677.58665    
[...]
   3823000   302.75486      0.021145685    15.754551      751.14315     -35.513962      715.62919    
   3824000   291.24979      0.021145685    12.616417      722.59876     -40.117282      682.48148    
   3825000   311.81723      0.021145685    9.7915083      773.62714     -37.843417      735.78372    
   3826000   294.80648      0.021145685    17.315782      731.423       -35.665612      695.75739    
   3827000   298.19444      0.021145685    10.065926      739.82863     -29.766688      710.06194    
   3828000   318.30066      0.021145685    8.6010836      789.71272     -31.312863      758.39986    
   3829000   295.05892      0.021145685    15.415416      732.0493      -33.180357      698.86895    
   3830000   288.93768      0.021145685    10.66187       716.86235     -28.774508      688.08785    
   3831000   312.26364      0.021145685    6.2696594      774.73471     -33.748714      740.98599    
   3832000   304.95829      0.021145685    13.079812      756.60993     -36.23098       720.37895    
   3833000   282.05398      0.021145685    1.3673096      699.7837      -37.245594      662.53811    
   3834000   319.34463      0.021145685   -7.0652968      792.30283     -36.204523      756.0983     
   3835000   314.4461       0.021145685    19.434131      780.14945     -34.715398      745.43405    
   3836000   290.39425      0.021145685    13.639701      720.47614     -36.164657      684.31148    
   3837000   300.8355       0.021145685   -0.54565053     746.38116     -40.763788      705.61737    
   3838000   318.60922      0.021145685    14.184484      790.47825     -44.792019      745.68623    
   3839000   293.67232      0.021145685    12.809096      728.60911     -43.959803      684.64931    
   3840000   296.90504      0.021145685    11.277857      736.62959     -42.274171      694.35542    
   3841000   314.27336      0.021145685    7.8543954      779.72086     -41.642802      738.07806    
   3842000   309.04744      0.021145685    14.098988      766.75523     -37.204316      729.55091    
   3843000   293.12416      0.021145685    10.4436        727.24911     -38.656196      688.59291    
   3844000   307.2815       0.021145685    11.356807      762.37388     -45.001042      717.37284    
   3845000   299.42504      0.021145685    11.977498      742.88177     -45.936375      696.94539    
   3846000   301.0266       0.021145685    13.080784      746.8553      -42.142579      704.71272    
   3847000   298.45648      0.021145685    6.1450185      740.47876     -34.686619      705.79214    
   3848000   291.36872      0.021145685    11.412748      722.89382     -31.447774      691.44605    
   3849000   315.04867      0.021145685    11.938392      781.64445     -38.680757      742.96369    
   3850000   307.0184       0.021145685    11.44877       761.7211      -36.056713      725.66439    
   3851000   293.33063      0.021145685    11.42537       727.76138     -38.120426      689.64096    
   3852000   288.23076      0.021145685    12.519813      715.10846     -42.91756       672.1909     
   3853000   304.18863      0.021145685    11.532866      754.70039     -42.483404      712.21698    
   3854000   297.941        0.021145685    12.412346      739.19983     -42.06831       697.13152    
   3855000   304.16751      0.021145685    11.734396      754.64798     -38.266419      716.38156    
   3856000   302.18823      0.021145685    13.275987      749.73733     -37.898148      711.83918    
   3857000   299.55327      0.021145685    15.144115      743.19991     -34.607458      708.59246    
   3858000   301.35632      0.021145685    7.1329497      747.67334     -37.558181      710.11516    
   3859000   298.42619      0.021145685    11.458382      740.40361     -32.637751      707.76586    
   3860000   299.88237      0.021145685    15.288204      744.01643     -34.838723      709.17771    
   3861000   306.09376      0.021145685    10.412401      759.42707     -32.129635      727.29743    
   3862000   292.69135      0.021145685    6.7652609      726.1753      -30.903643      695.27166    
   3863000   294.24113      0.021145685    11.321249      730.02035     -37.294166      692.72619    
   3864000   302.08267      0.021145685    11.193869      749.47543     -39.978824      709.49661    
   3865000   317.25463      0.021145685    5.9790513      787.11748     -39.420043      747.69744    
   3866000   292.07733      0.021145685   -2.4605757      724.65191     -45.817732      678.83417    
   3867000   292.75641      0.021145685    19.279195      726.33673     -41.431379      684.90535    
   3868000   303.28203      0.021145685    18.645204      752.45108     -40.314126      712.13695    
   3869000   316.30253      0.021145685   -0.25983172     784.75528     -37.035567      747.71972    
   3870000   280.73868      0.021145685    12.123816      696.5204      -40.743014      655.77739    
   3871000   297.44224      0.021145685    12.679136      737.96239     -41.540956      696.42144    
   3872000   317.02491      0.021145685    12.241981      786.54753     -37.108806      749.43873    
   3873000   294.85844      0.021145685    8.609813       731.55191     -41.999063      689.55285    
   3874000   292.53136      0.021145685    10.998055      725.77836     -40.760553      685.01781    
   3875000   294.8246       0.021145685    11.889262      731.46795     -42.470231      688.99772    
   3876000   311.87859      0.021145685    12.360454      773.77939     -47.311156      726.46823    
   3877000   306.92145      0.021145685    11.325574      761.48059     -47.840867      713.63972    
   3878000   284.72841      0.021145685    10.069693      706.41903     -45.492356      660.92668    
   3879000   297.90498      0.021145685    10.555839      739.11046     -49.965706      689.14476    
   3880000   317.4007       0.021145685    13.494761      787.47988     -41.537747      745.94213    
   3881000   295.53211      0.021145685    6.0450219      733.22332     -39.640512      693.5828     
   3882000   294.7406       0.021145685    9.8286794      731.25954     -41.896294      689.36325    
   3883000   292.1418       0.021145685    19.094609      724.81186     -39.490493      685.32136    
   3884000   308.0154       0.021145685    19.440992      764.19469     -39.668164      724.52653    
   3885000   304.95175      0.021145685    9.84799        756.59371     -40.89943       715.69428    
   3886000   288.42894      0.021145685    8.1383792      715.60015     -42.272303      673.32784    
   3887000   296.75633      0.021145685    7.0802816      736.26063     -41.593797      694.66683    
   3888000   290.78504      0.021145685    29.651162      721.4457      -42.739164      678.70654    
   3889000   291.18791      0.021145685    16.05967       722.44522     -42.410461      680.03476    
   3890000   311.07219      0.021145685    13.481218      771.77868     -38.184984      733.5937     
   3891000   301.64855      0.021145685    8.2231755      748.39837     -38.055705      710.34267    
   3892000   302.89016      0.021145685    21.26241       751.47884     -37.042249      714.43659    
   3893000   311.82675      0.021145685    16.556499      773.65077     -37.865747      735.78502    
   3894000   280.89501      0.021145685    5.2342434      696.90826     -38.127558      658.7807     
   3895000   302.82794      0.021145685    14.752666      751.32447     -34.440869      716.8836     
   3896000   313.18149      0.021145685    23.661299      777.01191     -41.155901      735.85601    
   3897000   288.56762      0.021145685    6.1282219      715.94423     -38.402804      677.54143    
   3898000   293.23984      0.021145685    7.9480225      727.53613     -42.956059      684.58007    
   3899000   302.3253       0.021145685    22.376597      750.07741     -33.848452      716.22896    
   3900000   316.08731      0.021145685    12.101836      784.22134     -35.622817      748.59852    
   3901000   301.4016       0.021145685    6.2485876      747.78568     -38.220352      709.56533    
   3902000   295.06741      0.021145685    8.7870762      732.07038     -36.181398      695.88898    
   3903000   294.95018      0.021145685    13.688914      731.77953     -34.188133      697.5914     
   3904000   312.80053      0.021145685    10.626318      776.06673     -40.018229      736.0485     
   3905000   296.65723      0.021145685    11.790702      736.01477     -31.465111      704.54966    
   3906000   294.86219      0.021145685    4.2066         731.56123     -36.742432      694.8188     
   3907000   297.67084      0.021145685    9.0902211      738.52956     -33.031372      705.49819    
   3908000   302.65226      0.021145685    11.019914      750.88861     -36.942323      713.94628    
   3909000   310.40965      0.021145685    18.234888      770.13489     -35.888252      734.24664    
   3910000   299.00717      0.021145685    12.440385      741.84504     -40.678897      701.16614    
   3911000   299.03825      0.021145685    10.348507      741.92214     -43.979401      697.94274    
   3912000   295.48895      0.021145685    12.490511      733.11623     -33.91873       699.1975     
   3913000   309.69292      0.021145685    11.329339      768.35668     -33.666021      734.69066    
   3914000   296.89862      0.021145685    14.419242      736.61367     -37.458783      699.15489    
   3915000   287.01665      0.021145685    12.497204      712.09623     -34.438956      677.65728    
   3916000   298.29696      0.021145685    10.168033      740.08299     -35.080358      705.00263    
   3917000   313.27452      0.021145685    6.5805907      777.24271     -28.409109      748.8336     
   3918000   300.66095      0.021145685    11.082626      745.94812     -29.98386       715.96426    
   3919000   297.9957       0.021145685    11.411675      739.33555     -41.110846      698.2247     
   3920000   300.54811      0.021145685    12.638943      745.66814     -35.07975       710.58839    
   3921000   299.25258      0.021145685    6.8587567      742.45389     -38.048822      704.40507    
   3922000   304.3461       0.021145685    16.966249      755.09107     -36.729543      718.36153    
   3923000   291.40599      0.021145685    12.717395      722.9863      -37.635669      685.35063    
   3924000   313.73405      0.021145685    8.3033788      778.38283     -33.691283      744.69155    
   3925000   298.4838       0.021145685    22.651304      740.54654     -33.682177      706.86436    
   3926000   288.37376      0.021145685    12.445306      715.46324     -37.675077      677.78817    
   3927000   308.09069      0.021145685   -4.3929329      764.38149     -39.086879      725.29462    
   3928000   315.57831      0.021145685    10.655257      782.95849     -34.520775      748.43771    
   3929000   288.92586      0.021145685    15.359254      716.83303     -31.965899      684.86714    
   3930000   289.24819      0.021145685    9.0011248      717.63274     -32.873718      684.75902    
   3931000   302.9949       0.021145685    5.7028535      751.7387      -40.759402      710.9793     
   3932000   306.89719      0.021145685    12.490959      761.4204      -42.184952      719.23545    
   3933000   295.31637      0.021145685    24.556518      732.68807     -41.719412      690.96865    
   3934000   287.05322      0.021145685   -0.33512474     712.18696     -39.904705      672.28225    
   3935000   302.25839      0.021145685    1.5669587      749.91139     -37.172864      712.73853    
   3936000   303.44765      0.021145685    15.19776       752.86199     -35.162669      717.69932    
   3937000   292.05056      0.021145685    22.919878      724.58549     -39.93478       684.65071    
   3938000   299.20957      0.021145685    7.5817974      742.34718     -41.610735      700.73644    
   3939000   305.41148      0.021145685    9.3206881      757.73429     -40.964262      716.77003    
   3940000   307.43695      0.021145685    19.717899      762.75956     -39.600329      723.15923    
   3941000   284.07614      0.021145685    15.193672      704.80073     -33.540625      671.26011    
   3942000   308.76071      0.021145685    5.3395923      766.04384     -41.266937      724.7769     
   3943000   310.20702      0.021145685    12.878386      769.63216     -36.711566      732.92059    
   3944000   284.05515      0.021145685    19.959801      704.74866     -34.628313      670.12035    
   3945000   295.29713      0.021145685    5.3221151      732.64032     -31.773593      700.86672    
   3946000   314.88079      0.021145685    8.6682334      781.22792     -28.990245      752.23768    
   3947000   297.94953      0.021145685    15.707212      739.22098     -32.966156      706.25483    
   3948000   289.34541      0.021145685    7.7292124      717.87393     -36.546398      681.32753    
   3949000   299.64176      0.021145685    5.8308866      743.41946     -37.097328      706.32213    
   3950000   306.90221      0.021145685    10.147161      761.43284     -39.939112      721.49373    
   3951000   297.46761      0.021145685    28.724598      738.02534     -35.995514      702.02983    
   3952000   290.28557      0.021145685    0.72597809     720.20651     -33.205412      687.0011     
   3953000   298.6201       0.021145685    4.7709359      740.88471     -34.615415      706.26929    
   3954000   307.58932      0.021145685    22.060833      763.13757     -29.637551      733.50002    
   3955000   304.00779      0.021145685    12.02548       754.2517      -24.373366      729.87833    
   3956000   291.53616      0.021145685    9.065576       723.30925     -31.64422       691.66503    
   3957000   313.85822      0.021145685    9.5111068      778.6909      -31.539233      747.15166    
   3958000   306.66835      0.021145685    20.542022      760.85263     -37.760812      723.09182    
   3959000   291.52379      0.021145685    13.589795      723.27856     -39.798081      683.48048    
   3960000   291.30106      0.021145685    3.2380817      722.72597     -36.420974      686.30499    
   3961000   310.73803      0.021145685    16.737982      770.94961     -33.966864      736.98274    
   3962000   295.61766      0.021145685    15.274776      733.43557     -30.57401       702.86156    
   3963000   276.64422      0.021145685    1.8142514      686.36195     -33.88667       652.47528    
   3964000   308.3556       0.021145685    8.7064591      765.03874     -30.895692      734.14305    
   3965000   307.11532      0.021145685    26.649267      761.96158     -29.143602      732.81798    
   3966000   287.77882      0.021145685    16.002633      713.9872      -31.445833      682.54136    
   3967000   295.46766      0.021145685    5.1643182      733.0634      -34.04128       699.02212    
   3968000   306.97824      0.021145685    6.4284466      761.62148     -32.759404      728.86207    
   3969000   293.84789      0.021145685    16.231075      729.04471     -37.034291      692.01042    
   3970000   288.78406      0.021145685    11.380346      716.48121     -32.876854      683.60435    
   3971000   294.25857      0.021145685    8.722825       730.06363     -40.679922      689.38371    
   3972000   317.90971      0.021145685    12.997567      788.74275     -34.452148      754.2906     
   3973000   289.61685      0.021145685    11.460071      718.54738     -29.793883      688.75349    
   3974000   296.55892      0.021145685    10.675332      735.77085     -36.401976      699.36887    
   3975000   318.21665      0.021145685    11.249362      789.50429     -36.815575      752.68872    
   3976000   304.59834      0.021145685    13.448751      755.71687     -35.342911      720.37396    
   3977000   287.68953      0.021145685    13.72116       713.76565     -38.34955       675.4161     
   3978000   295.92141      0.021145685    12.053698      734.18917     -36.903538      697.28563    
   3979000   300.95097      0.021145685    6.5497569      746.66766     -36.190109      710.47755    
   3980000   315.25375      0.021145685    10.074342      782.15325     -33.997561      748.15569    
   3981000   297.85469      0.021145685    11.967578      738.98568     -29.507313      709.47837    
   3982000   290.591        0.021145685    11.310455      720.96429     -30.561206      690.40308    
   3983000   307.14057      0.021145685    10.707382      762.02421     -30.951856      731.07236    
   3984000   304.52332      0.021145685    11.588351      755.53076     -29.075666      726.4551     
   3985000   299.89218      0.021145685    13.27665       744.04078     -29.549601      714.49118    
   3986000   302.61665      0.021145685    11.424057      750.80026     -33.785919      717.01434    
   3987000   293.37635      0.021145685    10.919787      727.8748      -32.49283       695.38197    
   3988000   297.70426      0.021145685    9.4781627      738.61247     -34.892422      703.72005    
   3989000   303.26151      0.021145685    12.159539      752.40017     -29.214042      723.18613    
   3990000   307.43348      0.021145685    11.205475      762.75093     -31.004387      731.74655    
   3991000   282.85828      0.021145685    8.5377947      701.77918     -30.253786      671.5254     
   3992000   295.70512      0.021145685    10.946093      733.65256     -32.694398      700.95817    
   3993000   306.74164      0.021145685    11.250108      761.03447     -29.776178      731.25829    
   3994000   313.84073      0.021145685    10.569152      778.6475      -30.988997      747.65851    
   3995000   302.84242      0.021145685    8.2276176      751.3604      -34.843861      716.51654    
   3996000   282.2071       0.021145685    9.3848987      700.16359     -32.917399      667.24619    
   3997000   295.67323      0.021145685    13.455213      733.57343     -34.680466      698.89296    
   3998000   313.12783      0.021145685    10.844671      776.87877     -31.570512      745.30825    
   3999000   300.20439      0.021145685    7.1003722      744.81536     -31.0596        713.75577    
   4000000   294.42323      0.021145685    23.521285      730.47216     -33.030189      697.44197    
Loop time of 7533.13 on 1 procs for 4000000 steps with 1500 atoms

Performance: 11.469 ns/day, 2.093 hours/ns, 530.988 timesteps/s, 796.481 katom-step/s
100.0% CPU use with 1 MPI tasks x 1 OpenMP threads

MPI task timing breakdown:
Section |  min time  |  avg time  |  max time  |%varavg| %total
---------------------------------------------------------------
Pair    | 697.71     | 697.71     | 697.71     |   0.0 |  9.26
Bond    | 103.33     | 103.33     | 103.33     |   0.0 |  1.37
Kspace  | 6142.7     | 6142.7     | 6142.7     |   0.0 | 81.54
Neigh   | 0.030795   | 0.030795   | 0.030795   |   0.0 |  0.00
Comm    | 25.757     | 25.757     | 25.757     |   0.0 |  0.34
Output  | 0.10437    | 0.10437    | 0.10437    |   0.0 |  0.00
Modify  | 547.6      | 547.6      | 547.6      |   0.0 |  7.27
Other   |            | 15.9       |            |       |  0.21

Nlocal:           1500 ave        1500 max        1500 min
Histogram: 1 0 0 0 0 0 0 0 0 0
Nghost:           1195 ave        1195 max        1195 min
Histogram: 1 0 0 0 0 0 0 0 0 0
Neighs:              0 ave           0 max           0 min
Histogram: 1 0 0 0 0 0 0 0 0 0

Total # of neighbors = 0
Ave neighs/atom = 0
Ave special neighs/atom = 2
Neighbor list builds = 15806
Dangerous builds = 0
write_data	last_conf.data pair ij
System init for write_data ...
PPPM initialization ...
  using 12-bit tables for long-range coulomb (src/kspace.cpp:342)
  G vector (1/distance) = 0.17038764
  grid = 27 27 27
  stencil order = 5
  estimated absolute RMS force accuracy = 0.029922947
  estimated relative force accuracy = 9.0112066e-05
  using double precision FFTW3
  3d grid and FFT values/proc = 32768 19683
Generated 1 of 1 mixed pair_coeff terms from arithmetic mixing rule
Total wall time: 2:05:33
