LAMMPS data file via write_data, version 29 Aug 2024, timestep = 0, units = real

1500 atoms
2 atom types
1000 bonds
1 bond types
500 angles
1 angle types

0 135 xlo xhi
0 135 ylo yhi
0 135 zlo zhi

Masses

1 12.0107
2 15.9994

PairIJ Coeffs # lj/cut/coul/long/gpu

1 1 0.053649 2.8 12
1 2 0.0917684 2.925 12
2 2 0.156973 3.05 12

Bond Coeffs # harmonic

1 0 1.16

Angle Coeffs # harmonic

1 0 180

Atoms # full

1 1 1 0.7 9.946350639195344 38.31519295615851 13.448014156170196 0 0 0
2 1 2 -0.35 8.938689894953129 38.55287898179207 12.924826639373638 0 0 0
3 1 2 -0.35 10.95401138343756 38.077506930524954 13.971201672966753 0 0 0
4 2 1 0.7 30.773922752483713 32.31970099374638 92.21460189540619 0 0 0
5 2 2 -0.35 31.121242608613297 32.82026808455859 91.22748411867744 0 0 0
6 2 2 -0.35 30.42660289635413 31.81913390293417 93.20171967213494 0 0 0
7 3 1 0.7 50.814056091855306 21.84073581213166 12.246794496777836 0 0 0
8 3 2 -0.35 50.35144723690233 20.77697259729515 12.245861716101803 0 0 0
9 3 2 -0.35 51.27666494680828 22.904499026968168 12.247727277453869 0 0 0
10 4 1 0.7 91.87510734511311 14.929149316125153 84.2125561154506 0 0 0
11 4 2 -0.35 90.7900480273541 15.128193254276315 84.57120327859236 0 0 0
12 4 2 -0.35 92.96016666287211 14.730105377973992 83.85390895230883 0 0 0
13 5 1 0.7 20.43063237817522 72.63837999088615 28.252506823396544 0 0 0
14 5 2 -0.35 20.257973603130797 72.92335844040639 29.36362168276492 0 0 0
15 5 2 -0.35 20.60329115321964 72.35340154136591 27.14139196402817 0 0 0
16 6 1 0.7 44.88218082575229 89.81313841874392 54.41740382901272 0 0 0
17 6 2 -0.35 43.79470664136288 89.98669806393417 54.05288092459105 0 0 0
18 6 2 -0.35 45.96965501014171 89.63957877355367 54.78192673343439 0 0 0
19 7 1 0.7 103.30615421678226 31.5339214594727 115.61796935769634 0 0 0
20 7 2 -0.35 102.28478161721709 31.796597575720025 115.13485521920448 0 0 0
21 7 2 -0.35 104.32752681634743 31.271245343225377 116.1010834961882 0 0 0
22 8 1 0.7 1.210994802513623 103.18964584646265 98.37774149765156 0 0 0
23 8 2 -0.35 0.7361014027839196 104.20707812828604 98.66913094632262 0 0 0
24 8 2 -0.35 1.6858882022433264 102.17221356463926 98.08635204898049 0 0 0
25 9 1 0.7 89.70135102965932 65.60675548417808 107.73942258103723 0 0 0
26 9 2 -0.35 89.36059402661054 66.3187740593318 106.88941422019055 0 0 0
27 9 2 -0.35 90.0421080327081 64.89473690902436 108.58943094188392 0 0 0
28 10 1 0.7 21.475319492851998 80.69471636353747 26.097921974071266 0 0 0
29 10 2 -0.35 21.481898802826343 79.7351743893202 26.74971635299418 0 0 0
30 10 2 -0.35 21.468740182877653 81.65425833775473 25.44612759514835 0 0 0
31 11 1 0.7 12.774618215753986 53.00835217722149 46.375042561616304 0 0 0
32 11 2 -0.35 12.38020724420144 52.979174098373825 47.46554181665215 0 0 0
33 11 2 -0.35 13.169029187306531 53.037530256069154 45.28454330658046 0 0 0
34 12 1 0.7 70.34033308519997 14.978162955948228 97.9848006218601 0 0 0
35 12 2 -0.35 69.4209943065732 15.661571247229816 98.16747332786905 0 0 0
36 12 2 -0.35 71.25967186382674 14.294754664666641 97.80212791585116 0 0 0
37 13 1 0.7 100.54405160273615 48.875287186296326 106.95174008233089 0 0 0
38 13 2 -0.35 100.62902177955829 47.724444628287856 106.83366605585879 0 0 0
39 13 2 -0.35 100.45908142591401 50.0261297443048 107.06981410880299 0 0 0
40 14 1 0.7 12.895563735112345 60.73969603317775 117.07122961854154 0 0 0
41 14 2 -0.35 12.194544329603287 60.398864087433246 117.93030201238255 0 0 0
42 14 2 -0.35 13.596583140621403 61.080527978922255 116.21215722470052 0 0 0
43 15 1 0.7 126.15619882762256 132.2336958522134 81.72618815057267 0 0 0
44 15 2 -0.35 125.36956175040876 132.2398108203736 80.87368318523995 0 0 0
45 15 2 -0.35 126.94283590483636 132.2275808840532 82.57869311590538 0 0 0
46 16 1 0.7 82.04424667500157 27.653866751423976 108.53849118274567 0 0 0
47 16 2 -0.35 80.89471937138067 27.50369142802843 108.49806408201982 0 0 0
48 16 2 -0.35 83.19377397862247 27.804042074819524 108.57891828347152 0 0 0
49 17 1 0.7 86.4213084063592 17.93038567897416 35.992106518704496 0 0 0
50 17 2 -0.35 85.4495819363819 18.502074448818103 36.26508933497648 0 0 0
51 17 2 -0.35 87.3930348763365 17.35869690913022 35.71912370243251 0 0 0
52 18 1 0.7 119.33425986642682 90.90557503556161 54.99962268397195 0 0 0
53 18 2 -0.35 118.51862132953835 91.52736048900655 54.45766638773884 0 0 0
54 18 2 -0.35 120.14989840331529 90.28378958211667 55.54157898020506 0 0 0
55 19 1 0.7 33.658449516472615 47.56102335525724 23.119531808476676 0 0 0
56 19 2 -0.35 33.47870887796463 47.87264195701185 22.016723053565272 0 0 0
57 19 2 -0.35 33.8381901549806 47.24940475350263 24.22234056338808 0 0 0
58 20 1 0.7 39.9711050675116 34.362869667523945 6.750502074952471 0 0 0
59 20 2 -0.35 40.89156419394248 34.2981777910944 7.453474306049922 0 0 0
60 20 2 -0.35 39.050645941080724 34.42756154395349 6.04752984385502 0 0 0
61 21 1 0.7 55.68837372618186 134.49721593852024 54.70827870988673 0 0 0
62 21 2 -0.35 56.498010397310914 133.76874545348647 55.10755206637039 0 0 0
63 21 2 -0.35 54.8787370550528 0.22568642355400925 54.309005353403066 0 1 0
64 22 1 0.7 132.04027706619365 70.93665151667625 47.302040777775474 0 0 0
65 22 2 -0.35 131.11497205366385 70.2522781147428 47.15697637651442 0 0 0
66 22 2 -0.35 132.96558207872346 71.6210249186097 47.44710517903653 0 0 0
67 23 1 0.7 125.39935207245841 101.91028180853942 61.10635612211486 0 0 0
68 23 2 -0.35 126.16199081770488 102.5099933489246 60.47048804414763 0 0 0
69 23 2 -0.35 124.63671332721195 101.31057026815425 61.74222420008209 0 0 0
70 24 1 0.7 69.52734438447624 121.07706989211826 87.31367683145855 0 0 0
71 24 2 -0.35 68.7079066693163 121.81694670644157 87.6696320682514 0 0 0
72 24 2 -0.35 70.34678209963617 120.33719307779495 86.9577215946657 0 0 0
73 25 1 0.7 30.96650632376154 29.071783460244433 44.46461632822855 0 0 0
74 25 2 -0.35 29.922685656833348 28.58841720161231 44.3149651494508 0 0 0
75 25 2 -0.35 32.01032699068973 29.555149718876557 44.6142675070063 0 0 0
76 26 1 0.7 91.80662853727426 79.00582596846196 125.91705194018644 0 0 0
77 26 2 -0.35 90.72556239385688 79.30273429348394 125.61915692497253 0 0 0
78 26 2 -0.35 92.88769468069165 78.70891764343999 126.21494695540035 0 0 0
79 27 1 0.7 27.891958713481184 60.15009747825102 62.688316964864875 0 0 0
80 27 2 -0.35 27.0452740924171 60.075860905778 61.898877870468716 0 0 0
81 27 2 -0.35 28.73864333454527 60.22433405072404 63.47775605926103 0 0 0
82 28 1 0.7 62.54322848401183 54.0411307867808 124.28513342481347 0 0 0
83 28 2 -0.35 61.712931754708045 54.595683099197124 124.87562396165647 0 0 0
84 28 2 -0.35 63.37352521331561 53.48657847436447 123.69464288797046 0 0 0
85 29 1 0.7 5.237470839748844 6.172403658820504 59.588293796213485 0 0 0
86 29 2 -0.35 4.078098164907299 6.197197482997192 59.617281157484506 0 0 0
87 29 2 -0.35 6.396843514590389 6.147609834643816 59.559306434942464 0 0 0
88 30 1 0.7 70.45383295996758 32.57055817524463 123.37125133647176 0 0 0
89 30 2 -0.35 69.53400747063127 32.619592487273096 122.6661863001729 0 0 0
90 30 2 -0.35 71.3736584493039 32.52152386321616 124.07631637277062 0 0 0
91 31 1 0.7 35.62121208087598 95.71144328252946 97.22724947250785 0 0 0
92 31 2 -0.35 35.93339222250993 94.72590127015151 96.70108362317188 0 0 0
93 31 2 -0.35 35.309031939242026 96.6969852949074 97.75341532184382 0 0 0
94 32 1 0.7 58.38188443956053 44.33177569384304 19.154086419918613 0 0 0
95 32 2 -0.35 57.590513165096425 43.484320945666745 19.120145946343268 0 0 0
96 32 2 -0.35 59.173255714024634 45.17923044201934 19.18802689349396 0 0 0
97 33 1 0.7 82.73045957215618 85.83402922881488 2.5292486918760693 0 0 0
98 33 2 -0.35 81.5893280600645 85.67066346718916 2.6585951260743377 0 0 0
99 33 2 -0.35 83.87159108424785 85.99739499044061 2.399902257677801 0 0 0
100 34 1 0.7 119.08276436109225 49.020616877368006 119.50785792409809 0 0 0
101 34 2 -0.35 118.08414673781425 48.96820925851418 118.91996653620005 0 0 0
102 34 2 -0.35 120.08138198437024 49.073024496221834 120.09574931199613 0 0 0
103 35 1 0.7 38.56813031647733 79.5662290344789 94.61138248658337 0 0 0
104 35 2 -0.35 37.42191875575147 79.7444311251432 94.60481948869639 0 0 0
105 35 2 -0.35 39.71434187720319 79.3880269438146 94.61794548447034 0 0 0
106 36 1 0.7 103.50545200682498 6.131878707619327 53.48543895803645 0 0 0
107 36 2 -0.35 102.52481920956849 5.577030513718086 53.76130631505689 0 0 0
108 36 2 -0.35 104.48608480408147 6.686726901520569 53.209571601016 0 0 0
109 37 1 0.7 99.77256771864955 42.54564734294342 104.69489285009675 0 0 0
110 37 2 -0.35 98.6133610553456 42.54306833866903 104.65207625881871 0 0 0
111 37 2 -0.35 100.9317743819535 42.548226347217806 104.73770944137479 0 0 0
112 38 1 0.7 17.064131576132088 56.85940005204613 105.93667473920466 0 0 0
113 38 2 -0.35 17.10711968510979 57.468682236752116 104.95050678095089 0 0 0
114 38 2 -0.35 17.021143467154385 56.25011786734014 106.92284269745844 0 0 0
115 39 1 0.7 97.69234181274302 45.18884677215891 113.94769967484646 0 0 0
116 39 2 -0.35 96.90375494833961 44.47427578026503 113.48605148105145 0 0 0
117 39 2 -0.35 98.48092867714644 45.90341776405279 114.40934786864148 0 0 0
118 40 1 0.7 8.988435144530813 3.629474129355268 115.57169207398393 0 0 0
119 40 2 -0.35 8.736756885039448 3.670055020267118 116.70333302631474 0 0 0
120 40 2 -0.35 9.240113404022178 3.588893238443418 114.44005112165311 0 0 0
121 41 1 0.7 33.42868744788165 100.94993654682763 120.5835425320936 0 0 0
122 41 2 -0.35 32.907655017141586 101.7026578208307 119.87112700041263 0 0 0
123 41 2 -0.35 33.949719878621714 100.19721527282456 121.29595806377458 0 0 0
124 42 1 0.7 27.59933689730211 2.0552329565655594 117.30030099735609 0 0 0
125 42 2 -0.35 26.4567165671604 1.8887524734901466 117.4112200214314 0 0 0
126 42 2 -0.35 28.74195722744382 2.221713439640972 117.18938197328077 0 0 0
127 43 1 0.7 61.158862563855415 7.003110717983502 116.28183714872311 0 0 0
128 43 2 -0.35 62.26392213586292 7.060877025151496 115.93383370610974 0 0 0
129 43 2 -0.35 60.05380299184791 6.945344410815509 116.62984059133649 0 0 0
130 44 1 0.7 88.83695858942203 117.76301241608476 7.949677136703244 0 0 0
131 44 2 -0.35 88.21617973376762 118.64533422280037 7.523365230035706 0 0 0
132 44 2 -0.35 89.45773744507643 116.88069060936915 8.375989043370781 0 0 0
133 45 1 0.7 95.22363657142205 133.65985589039505 21.197949869650394 0 0 0
134 45 2 -0.35 94.10167198202122 133.42786257300267 21.379538858347154 0 0 0
135 45 2 -0.35 96.34560116082288 133.89184920778743 21.016360880953634 0 0 0
136 46 1 0.7 8.943459214150653 57.71901223003819 108.43855025174028 0 0 0
137 46 2 -0.35 8.635710341702408 57.37628308570839 109.5031757094172 0 0 0
138 46 2 -0.35 9.251208086598899 58.06174137436799 107.37392479406336 0 0 0
139 47 1 0.7 26.714080999006555 108.55935030316904 32.000545362010854 0 0 0
140 47 2 -0.35 25.99047106125198 108.70761006323288 32.894976858285794 0 0 0
141 47 2 -0.35 27.43769093676113 108.4110905431052 31.10611386573591 0 0 0
142 48 1 0.7 128.16589931639186 24.26981059800359 67.70672064633422 0 0 0
143 48 2 -0.35 127.15585096909408 23.704833063455002 67.78547800520577 0 0 0
144 48 2 -0.35 129.17594766368964 24.83478813255218 67.62796328746266 0 0 0
145 49 1 0.7 31.853902939173345 93.5466986864557 29.36482326098011 0 0 0
146 49 2 -0.35 32.034074710389234 92.65596426991186 28.643900011222385 0 0 0
147 49 2 -0.35 31.673731167957452 94.43743310299953 30.085746510737835 0 0 0
148 50 1 0.7 109.58454729271332 117.48634863294957 83.06147398336859 0 0 0
149 50 2 -0.35 108.91475517732229 116.69372861769841 83.57986768856112 0 0 0
150 50 2 -0.35 110.25433940810436 118.27896864820073 82.54308027817605 0 0 0
151 51 1 0.7 114.19323847591562 85.75906471384646 92.60064561739594 0 0 0
152 51 2 -0.35 113.36932870925453 86.31400333989899 93.19965798597894 0 0 0
153 51 2 -0.35 115.01714824257671 85.20412608779392 92.00163324881294 0 0 0
154 52 1 0.7 59.05089157356457 83.3346768996374 115.91465220596392 0 0 0
155 52 2 -0.35 58.99974511426042 82.17583674953352 115.92322811453772 0 0 0
156 52 2 -0.35 59.10203803286872 84.49351704974129 115.90607629739011 0 0 0
157 53 1 0.7 127.55962563564984 94.62805836676995 113.77697030258223 0 0 0
158 53 2 -0.35 126.51995427423002 94.55021367429377 113.26841975042763 0 0 0
159 53 2 -0.35 128.59929699706964 94.70590305924613 114.28552085473683 0 0 0
160 54 1 0.7 109.53987549968988 41.687523288041135 127.20390210729275 0 0 0
161 54 2 -0.35 108.8196652244951 42.55699168361569 127.47021370786781 0 0 0
162 54 2 -0.35 110.26008577488467 40.81805489246658 126.93759050671768 0 0 0
163 55 1 0.7 55.9827172690922 86.52914163262078 75.28341945739622 0 0 0
164 55 2 -0.35 55.159473507548554 86.36221985213555 76.08342372505929 0 0 0
165 55 2 -0.35 56.80596103063584 86.696063413106 74.48341518973315 0 0 0
166 56 1 0.7 68.4308204583036 51.799442708398885 113.23360006009861 0 0 0
167 56 2 -0.35 67.29176447273846 51.744564332277726 113.02113870930145 0 0 0
168 56 2 -0.35 69.56987644386874 51.854321084520045 113.44606141089577 0 0 0
169 57 1 0.7 22.116210077477717 52.14277216798755 78.57182736674875 0 0 0
170 57 2 -0.35 21.00786800249293 52.210527658513016 78.23628744614008 0 0 0
171 57 2 -0.35 23.224552152462504 52.07501667746209 78.90736728735742 0 0 0
172 58 1 0.7 121.70255294614591 69.80736587420448 102.3982477548524 0 0 0
173 58 2 -0.35 122.07560073813633 68.79871121834708 102.83304785847277 0 0 0
174 58 2 -0.35 121.3295051541555 70.81602053006188 101.96344765123204 0 0 0
175 59 1 0.7 27.350015804334554 131.71562345079874 14.483337574397837 0 0 0
176 59 2 -0.35 27.093978747113688 130.65885901068586 14.079241121255082 0 0 0
177 59 2 -0.35 27.60605286155542 132.77238789091163 14.887434027540591 0 0 0
178 60 1 0.7 16.454612904439966 72.67908492250326 37.38029251218787 0 0 0
179 60 2 -0.35 15.434805176679978 72.41381722737825 36.89529225618374 0 0 0
180 60 2 -0.35 17.47442063219995 72.94435261762828 37.865292768192006 0 0 0
181 61 1 0.7 95.57625234153879 120.07310424236259 88.66300138815447 0 0 0
182 61 2 -0.35 94.50587693523912 120.36779310345287 88.99923785961187 0 0 0
183 61 2 -0.35 96.64662774783847 119.77841538127231 88.32676491669707 0 0 0
184 62 1 0.7 29.06433071199075 54.206276428516155 64.88793407095966 0 0 0
185 62 2 -0.35 29.628383507493506 55.01738754594516 65.49583471997116 0 0 0
186 62 2 -0.35 28.500277916487992 53.39516531108715 64.28003342194816 0 0 0
187 63 1 0.7 41.50793061894734 78.78991264793551 7.0618738523041245 0 0 0
188 63 2 -0.35 40.44406182168222 79.2151020581783 6.880222682137077 0 0 0
189 63 2 -0.35 42.571799416212464 78.36472323769271 7.243525022471172 0 0 0
190 64 1 0.7 23.913835675415505 24.836196708416658 1.958078358768522 0 0 0
191 64 2 -0.35 23.95408300508757 25.743336121435156 1.236220867429184 0 0 0
192 64 2 -0.35 23.873588345743443 23.92905729539816 2.67993585010786 0 0 0
193 65 1 0.7 104.42297582254884 36.95464957829316 96.7954623730832 0 0 0
194 65 2 -0.35 104.69298407483078 36.340843255617415 97.74200204047328 0 0 0
195 65 2 -0.35 104.1529675702669 37.5684559009689 95.84892270569311 0 0 0
196 66 1 0.7 91.33610440946002 0.9068097946731419 120.75221907149638 0 0 0
197 66 2 -0.35 90.59329700688879 1.1336373542045681 119.89060058230154 0 0 0
198 66 2 -0.35 92.07891181203125 0.6799822351417159 121.61383756069122 0 0 0
199 67 1 0.7 27.54593463965968 49.52348876023827 66.27559332469274 0 0 0
200 67 2 -0.35 27.149709138349092 48.53214391997885 65.82189655392817 0 0 0
201 67 2 -0.35 27.94216014097027 50.514833600497695 66.7292900954573 0 0 0
202 68 1 0.7 8.897008110721133 87.01531689009411 11.43097181172621 0 0 0
203 68 2 -0.35 8.242310152069317 87.68101991994563 10.742633189401651 0 0 0
204 68 2 -0.35 9.55170606937295 86.3496138602426 12.119310434050767 0 0 0
205 69 1 0.7 15.343239682420734 23.829342445279167 89.75847780693252 0 0 0
206 69 2 -0.35 14.240870913322627 23.885552596335923 90.11516186297554 0 0 0
207 69 2 -0.35 16.44560845151884 23.77313229422241 89.4017937508895 0 0 0
208 70 1 0.7 80.73650111478591 53.37423620669834 120.78792597902377 0 0 0
209 70 2 -0.35 79.62273074594079 53.45235251239804 120.47326201816009 0 0 0
210 70 2 -0.35 81.85027148363103 53.29611990099864 121.10258993988745 0 0 0
211 71 1 0.7 87.67192945241553 112.11830674769278 42.38150847255322 0 0 0
212 71 2 -0.35 88.71525062299798 111.67923075521314 42.635069526034364 0 0 0
213 71 2 -0.35 86.62860828183307 112.55738274017243 42.12794741907208 0 0 0
214 72 1 0.7 46.01289820206021 58.78008202592846 121.83860977964412 0 0 0
215 72 2 -0.35 44.85565373315248 58.79836485205186 121.91639780861654 0 0 0
216 72 2 -0.35 47.170142670967934 58.761799199805054 121.7608217506717 0 0 0
217 73 1 0.7 61.51456647855908 45.31880514245425 3.158029228522456 0 0 0
218 73 2 -0.35 61.462679338026604 46.412779915003405 3.540294740533929 0 0 0
219 73 2 -0.35 61.56645361909156 44.2248303699051 2.775763716510983 0 0 0
220 74 1 0.7 21.99724377691617 77.67615863013833 53.19809673502953 0 0 0
221 74 2 -0.35 20.847893031720837 77.77177384320089 53.0737963104529 0 0 0
222 74 2 -0.35 23.146594522111506 77.58054341707577 53.32239715960616 0 0 0
223 75 1 0.7 130.41182564125015 106.55355249138249 70.55672266546485 0 0 0
224 75 2 -0.35 129.8745357723852 105.86122858457762 69.796717925426 0 0 0
225 75 2 -0.35 130.9491155101151 107.24587639818736 71.3167274055037 0 0 0
226 76 1 0.7 6.8378384676006805 38.55112496463169 63.75728056475394 0 0 0
227 76 2 -0.35 7.795252699526415 38.87979433422462 64.32379131840072 0 0 0
228 76 2 -0.35 5.880424235674946 38.22245559503876 63.19076981110717 0 0 0
229 77 1 0.7 73.61445181938561 98.09172841398592 7.679453861284746 0 0 0
230 77 2 -0.35 72.794921300743 98.69723563573957 7.12507967951079 0 0 0
231 77 2 -0.35 74.43398233802822 97.48622119223226 8.233828043058702 0 0 0
232 78 1 0.7 8.581046612738188 41.650420290720845 43.613826145238164 0 0 0
233 78 2 -0.35 8.716999201284361 41.143161875191836 42.57951197945361 0 0 0
234 78 2 -0.35 8.445094024192015 42.157678706249854 44.648140311022715 0 0 0
235 79 1 0.7 102.57602301779018 45.218859999542524 78.38001231121831 0 0 0
236 79 2 -0.35 101.66308592870199 44.59504292512243 78.0293014202709 0 0 0
237 79 2 -0.35 103.48896010687837 45.84267707396262 78.73072320216572 0 0 0
238 80 1 0.7 2.8669146461723907 124.23445821936915 98.53929293739576 0 0 0
239 80 2 -0.35 3.802023995103413 123.64134378841894 98.88481540749055 0 0 0
240 80 2 -0.35 1.9318052972413682 124.82757265031935 98.19377046730096 0 0 0
241 81 1 0.7 104.89639881062155 28.774810116167558 48.23362242813857 0 0 0
242 81 2 -0.35 104.15239508330069 29.610597435889247 48.539429573125574 0 0 0
243 81 2 -0.35 105.6404025379424 27.93902279644587 47.92781528315156 0 0 0
244 82 1 0.7 122.49214972485423 110.560425624978 49.073479005169816 0 0 0
245 82 2 -0.35 122.76754857265598 109.52072792464207 49.507972004590606 0 0 0
246 82 2 -0.35 122.21675087705248 111.60012332531392 48.638986005749025 0 0 0
247 83 1 0.7 62.96163988903241 66.281614967753 110.1027630246723 0 0 0
248 83 2 -0.35 62.07836222731517 66.33023888552867 109.3523922583631 0 0 0
249 83 2 -0.35 63.844917550749656 66.23299104997733 110.8531337909815 0 0 0
250 84 1 0.7 52.13815566717561 0.9822982204995576 39.486191936063676 0 0 0
251 84 2 -0.35 53.28926207740779 0.8389629404521528 39.48318697081917 0 0 0
252 84 2 -0.35 50.98704925694343 1.1256335005469624 39.48919690130818 0 0 0
253 85 1 0.7 119.42786942209484 44.20137714790244 122.54572479638537 0 0 0
254 85 2 -0.35 120.33384703701428 43.521277342666984 122.29618759237846 0 0 0
255 85 2 -0.35 118.52189180717541 44.8814769531379 122.79526200039228 0 0 0
256 86 1 0.7 65.99665284901701 45.74443342897316 1.6926407519228015 0 0 0
257 86 2 -0.35 65.36130219336566 46.0595736886035 2.610582014272153 0 0 0
258 86 2 -0.35 66.63200350466836 45.42929316934282 0.77469948957345 0 0 0
259 87 1 0.7 98.21311756652459 22.86694057884949 114.67030872342656 0 0 0
260 87 2 -0.35 97.89968213565143 22.35790175012141 115.66441017776636 0 0 0
261 87 2 -0.35 98.52655299739774 23.37597940757757 113.67620726908676 0 0 0
262 88 1 0.7 3.878714630323795 119.55679185202196 51.000656933058366 0 0 0
263 88 2 -0.35 3.8833653568223334 119.2979348214907 49.86991761363608 0 0 0
264 88 2 -0.35 3.8740639038252564 119.81564888255322 52.13139625248065 0 0 0
265 89 1 0.7 53.04107391184246 56.32923633620573 105.47510260971035 0 0 0
266 89 2 -0.35 52.26497925173705 56.8219011563321 104.7676010524218 0 0 0
267 89 2 -0.35 53.81716857194787 55.83657151607936 106.1826041669989 0 0 0
268 90 1 0.7 35.0495614018522 72.97848092996443 74.32898991244332 0 0 0
269 90 2 -0.35 35.80369927609282 72.20272622887099 74.74741638193018 0 0 0
270 90 2 -0.35 34.29542352761158 73.75423563105788 73.91056344295646 0 0 0
271 91 1 0.7 92.33345843494565 23.435916131565307 92.44242321813591 0 0 0
272 91 2 -0.35 91.3274404413294 23.237423748765828 91.900087002776 0 0 0
273 91 2 -0.35 93.33947642856191 23.634408514364786 92.98475943349582 0 0 0
274 92 1 0.7 99.8070272103916 81.70632505170364 18.20514398310573 0 0 0
275 92 2 -0.35 98.92104751918954 81.41382764176146 18.89440826620375 0 0 0
276 92 2 -0.35 100.69300690159365 81.99882246164583 17.515879700007712 0 0 0
277 93 1 0.7 63.854924058008436 94.70864294781752 118.16202396907006 0 0 0
278 93 2 -0.35 62.695928035449576 94.66145463192841 118.17209782316301 0 0 0
279 93 2 -0.35 65.0139200805673 94.75583126370664 118.15195011497711 0 0 0
280 94 1 0.7 99.13684816059511 23.007035121790615 39.239291934873584 0 0 0
281 94 2 -0.35 99.22630321886726 22.344737874056293 40.18742702450642 0 0 0
282 94 2 -0.35 99.04739310232296 23.669332369524938 38.29115684524075 0 0 0
283 95 1 0.7 19.77954942024292 64.88710602274494 27.59092427445153 0 0 0
284 95 2 -0.35 18.628657650426593 64.74841223791668 27.633493843618442 0 0 0
285 95 2 -0.35 20.930441190059245 65.02579980757321 27.54835470528462 0 0 0
286 96 1 0.7 130.66428070686027 29.56584020031888 113.07624675942411 0 0 0
287 96 2 -0.35 130.04609992662856 29.900966119317076 113.99882095230386 0 0 0
288 96 2 -0.35 131.28246148709198 29.230714281320687 112.15367256654436 0 0 0
289 97 1 0.7 77.47928564086524 119.35376602194913 13.745530899029937 0 0 0
290 97 2 -0.35 77.47128799237473 119.81523370834151 12.681301782704756 0 0 0
291 97 2 -0.35 77.48728328935576 118.89229833555675 14.809760015355119 0 0 0
292 98 1 0.7 36.13781999616782 3.340675592581125 121.73468451096429 0 0 0
293 98 2 -0.35 35.846369588108836 2.756918652303722 122.69379060223898 0 0 0
294 98 2 -0.35 36.429270404226806 3.9244325328585283 120.7755784196896 0 0 0
295 99 1 0.7 69.84257577678308 19.171080393330698 98.34817070902706 0 0 0
296 99 2 -0.35 68.74527415920487 18.89542859261826 98.09215265336648 0 0 0
297 99 2 -0.35 70.93987739436129 19.446732194043136 98.60418876468763 0 0 0
298 100 1 0.7 132.7051066177455 39.72692444907824 115.4192156579435 0 0 0
299 100 2 -0.35 132.43751609806432 40.84379796997703 115.25615477332711 0 0 0
300 100 2 -0.35 132.9726971374267 38.61005092817945 115.58227654255988 0 0 0
301 101 1 0.7 35.75756305631137 92.36228742513912 102.96475431321412 0 0 0
302 101 2 -0.35 34.88642695321895 92.26691945229528 102.20473665575831 0 0 0
303 101 2 -0.35 36.62869915940379 92.45765539798295 103.72477197066992 0 0 0
304 102 1 0.7 98.62574218941188 72.84897744555444 57.76392743352984 0 0 0
305 102 2 -0.35 99.72106262023875 73.23082647153072 57.75589779006258 0 0 0
306 102 2 -0.35 97.530421758585 72.46712841957816 57.77195707699709 0 0 0
307 103 1 0.7 53.32837533593568 25.004271070940547 126.78388929776096 0 0 0
308 103 2 -0.35 52.302272156572435 24.46459255104717 126.74568772100909 0 0 0
309 103 2 -0.35 54.35447851529893 25.543949590833925 126.82209087451284 0 0 0
310 104 1 0.7 16.827427468647915 128.57346556548657 124.23575913265151 0 0 0
311 104 2 -0.35 15.66783261059432 128.59530568092273 124.21424693765887 0 0 0
312 104 2 -0.35 17.98702232670151 128.5516254500504 124.25727132764415 0 0 0
313 105 1 0.7 120.4037424737605 110.69975649272081 95.80737315854401 0 0 0
314 105 2 -0.35 119.52379927432926 111.34581524422354 95.41506198691945 0 0 0
315 105 2 -0.35 121.28368567319174 110.05369774121807 96.19968433016857 0 0 0
316 106 1 0.7 89.5206756491776 133.99563572788406 129.6496785477035 0 0 0
317 106 2 -0.35 88.39064657571177 133.91706190969734 129.39975766378723 0 0 0
318 106 2 -0.35 90.65070472264344 134.0742095460708 129.89959943161978 0 0 0
319 107 1 0.7 122.14735125291503 120.5325077430031 114.85763665282059 0 0 0
320 107 2 -0.35 122.84634376609215 119.6150297027032 114.98110127159781 0 0 0
321 107 2 -0.35 121.44835873973791 121.44998578330299 114.73417203404337 0 0 0
322 108 1 0.7 47.29922395539433 78.05701831265213 109.30678074448684 0 0 0
323 108 2 -0.35 48.45027675992516 78.1013448953035 109.44357473284948 0 0 0
324 108 2 -0.35 46.148171150863504 78.01269173000077 109.1699867561242 0 0 0
325 109 1 0.7 39.06397259052097 43.18732888586229 89.4365846875294 0 0 0
326 109 2 -0.35 37.91606492990417 43.28852635196024 89.30366713581925 0 0 0
327 109 2 -0.35 40.21188025113777 43.08613141976434 89.56950223923955 0 0 0
328 110 1 0.7 70.67884330669364 34.31945560002674 87.09026964944333 0 0 0
329 110 2 -0.35 71.4500860842663 35.084672000123184 87.49675266146899 0 0 0
330 110 2 -0.35 69.90760052912097 33.5542391999303 86.68378663741767 0 0 0
331 111 1 0.7 56.16199819425214 129.70365079571664 84.25892360939595 0 0 0
332 111 2 -0.35 55.32314642746188 129.99640885764555 85.00472548022256 0 0 0
333 111 2 -0.35 57.000849961042405 129.41089273378773 83.51312173856934 0 0 0
334 112 1 0.7 124.72910311758942 42.03609732540143 45.687748021766424 0 0 0
335 112 2 -0.35 123.85387285807253 41.3212768810371 45.94967115007849 0 0 0
336 112 2 -0.35 125.6043333771063 42.750917769765756 45.42582489345436 0 0 0
337 113 1 0.7 128.98100182832266 88.69772861883871 72.72489682199662 0 0 0
338 113 2 -0.35 127.98885065737717 89.2744905332939 72.89395819554322 0 0 0
339 113 2 -0.35 129.97315299926817 88.12096670438352 72.55583544845003 0 0 0
340 114 1 0.7 132.3408872971036 128.29280242011546 132.13027488073814 0 0 0
341 114 2 -0.35 131.25822972778306 128.0304331441153 131.8068325356376 0 0 0
342 114 2 -0.35 133.42354486642412 128.55517169611562 132.4537172258387 0 0 0
343 115 1 0.7 98.52992056567683 82.37494733062339 50.73978578706262 0 0 0
344 115 2 -0.35 99.44354544669596 82.5092937765494 50.03775971258261 0 0 0
345 115 2 -0.35 97.6162956846577 82.24060088469737 51.44181186154263 0 0 0
346 116 1 0.7 123.57972316144952 29.40717448219991 11.381522333892772 0 0 0
347 116 2 -0.35 123.80880242395799 28.33214213643139 11.010809308710197 0 0 0
348 116 2 -0.35 123.35064389894106 30.48220682796843 11.752235359075346 0 0 0
349 117 1 0.7 129.24586573580552 85.26542168355799 30.942235559198185 0 0 0
350 117 2 -0.35 129.43638969794839 85.1537395184619 29.80345212331196 0 0 0
351 117 2 -0.35 129.05534177366266 85.37710384865407 32.08101899508441 0 0 0
352 118 1 0.7 26.15304344387401 129.20116119049544 8.916128656787858 0 0 0
353 118 2 -0.35 24.998451606972704 129.27395358975286 9.001093100946678 0 0 0
354 118 2 -0.35 27.30763528077532 129.12836879123802 8.831164212629039 0 0 0
355 119 1 0.7 3.3743346335246858 12.442185649388556 0.8142092734641438 0 0 0
356 119 2 -0.35 4.371430357311805 12.868801946486466 1.2257899492203161 0 0 0
357 119 2 -0.35 2.3772389097375664 12.015569352290646 0.40262859770797155 0 0 0
358 120 1 0.7 49.41525911186601 2.2598931320290516 47.02387001226837 0 0 0
359 120 2 -0.35 48.76320572616173 1.375471221757591 47.395655255148405 0 0 0
360 120 2 -0.35 50.067312497570285 3.144315042300512 46.65208476938833 0 0 0
361 121 1 0.7 40.183296194385406 90.65913903557654 98.14977093513578 0 0 0
362 121 2 -0.35 39.13795677081355 90.17835575916705 98.2971240167168 0 0 0
363 121 2 -0.35 41.22863561795726 91.13992231198604 98.00241785355476 0 0 0
364 122 1 0.7 38.200106827169705 104.19544424125714 127.83136280851036 0 0 0
365 122 2 -0.35 37.246963523142156 103.60520203025239 127.53348368145431 0 0 0
366 122 2 -0.35 39.153250131197254 104.78568645226188 128.1292419355664 0 0 0
367 123 1 0.7 71.71472263369463 29.343304505731588 17.918827830776024 0 0 0
368 123 2 -0.35 71.70573075801883 29.877686053301126 16.88928642423182 0 0 0
369 123 2 -0.35 71.72371450937044 28.80892295816205 18.94836923732023 0 0 0
370 124 1 0.7 111.7393518526756 18.286587918776362 82.68315087430325 0 0 0
371 124 2 -0.35 110.58727432469964 18.383727824654766 82.77739103675395 0 0 0
372 124 2 -0.35 112.89142938065156 18.18944801289796 82.58891071185255 0 0 0
373 125 1 0.7 100.71674441486445 116.32338062688866 112.05819611766292 0 0 0
374 125 2 -0.35 99.83777491802623 116.70307312381878 111.4033325964595 0 0 0
375 125 2 -0.35 101.59571391170267 115.94368812995855 112.71305963886633 0 0 0
376 126 1 0.7 112.10214956062947 40.827665499331275 120.57404726071937 0 0 0
377 126 2 -0.35 111.45801692368843 39.932109460407574 120.93275679108434 0 0 0
378 126 2 -0.35 112.74628219757051 41.723221538254975 120.21533773035439 0 0 0
379 127 1 0.7 3.012310910510044 2.90947294231014 29.51174140652257 0 0 0
380 127 2 -0.35 2.6618487801788997 3.859256723666378 30.078033790257688 0 0 0
381 127 2 -0.35 3.3627730408411884 1.9596891609539022 28.945449022787454 0 0 0
382 128 1 0.7 13.83781942484799 102.23107342013674 52.65097223811363 0 0 0
383 128 2 -0.35 12.929380631231568 101.70705803117245 52.15524365271498 0 0 0
384 128 2 -0.35 14.74625821846441 102.75508880910103 53.14670082351228 0 0 0
385 129 1 0.7 114.89040597569682 58.05323353645076 55.69604712803664 0 0 0
386 129 2 -0.35 113.82990201573998 58.51804011962419 55.76594842383633 0 0 0
387 129 2 -0.35 115.95090993565367 57.588426953277335 55.62614583223695 0 0 0
388 130 1 0.7 128.46408091181146 40.80788481552521 58.12009453220298 0 0 0
389 130 2 -0.35 127.39424158432074 40.581689340594885 57.732951896375795 0 0 0
390 130 2 -0.35 129.5339202393022 41.03408029045554 58.50723716803016 0 0 0
391 131 1 0.7 99.42880273537189 69.88757339533771 100.44605544090552 0 0 0
392 131 2 -0.35 98.6987751101543 69.09821909620264 100.88146267196187 0 0 0