LAMMPS data file via write_data, version 29 Aug 2024, timestep = 4000000, units = real

1500 atoms
2 atom types
1000 bonds
1 bond types
500 angles
1 angle types

0 135 xlo xhi
0 135 ylo yhi
0 135 zlo zhi

Masses

1 12.0107
2 15.9994

PairIJ Coeffs # lj/cut/coul/long/gpu

1 1 0.053649 2.8 12
1 2 0.0917684 2.925 12
2 2 0.156973 3.05 12

Bond Coeffs # harmonic

1 0 1.16

Angle Coeffs # harmonic

1 0 180

Atoms # full

841 281 1 0.7 20.71722206566069 4.462076631207835 19.738165700831132 -2 -7 6
843 281 2 -0.35 21.234724689075147 5.464614339316286 20.007812096286205 -2 -7 6
842 281 2 -0.35 20.19971944224623 3.459538923099384 19.468519305376056 -2 -7 6
1351 451 1 0.7 10.770195215940504 0.783475970313824 19.976569164027307 1 3 -2
1352 451 2 -0.35 9.807234866134735 0.18768758066365832 20.22825062830569 1 3 -2
1353 451 2 -0.35 11.733155565746275 1.3792643599639898 19.72488769974892 1 3 -2
178 60 1 0.7 39.42977467628709 17.21962044779039 18.799935075173195 3 7 -2
180 60 2 -0.35 39.13695383742775 16.478305667170126 17.95713714425333 3 7 -2
179 60 2 -0.35 39.72259551514643 17.96093522841066 19.64273300609306 3 7 -2
883 295 1 0.7 31.574729837423906 4.510231349238612 0.4374059611258857 -3 8 7
884 295 2 -0.35 31.611005554432825 3.9017780221556646 1.4243551093180737 -3 8 7
299 100 2 -0.35 62.95177260306761 9.345874171745722 2.0540258426601916 2 -3 9
300 100 2 -0.35 64.07251408386524 7.541044012869829 2.986188184113206 2 -3 9
298 100 1 0.7 63.51214334346643 8.443459092307775 2.5201070133866987 2 -3 9
1199 400 2 -0.35 54.09730167937216 1.07151812465028 7.865461337490962 -4 5 7
1198 400 1 0.7 53.24501363444819 1.85438043973318 7.9450332175961345 -4 5 7
238 80 1 0.7 50.482153728241215 5.431349067227712 3.9037976384650546 1 0 2
240 80 2 -0.35 50.13843245804612 6.315669709161386 3.23639019869187 1 0 2
239 80 2 -0.35 50.82587499843631 4.547028425294037 4.571205078238239 1 0 2
1200 400 2 -0.35 52.39272558952423 2.63724275481608 8.024605097701308 -4 5 7
1268 423 2 -0.35 76.39035942680721 10.87424579770132 11.749816822542986 8 -3 1
1269 423 2 -0.35 74.75690526922274 10.027462960027393 13.163035256083562 8 -3 1
1267 423 1 0.7 75.57363234801498 10.450854378864356 12.456426039313275 8 -3 1
1081 361 1 0.7 87.42544666831998 7.1986277018567035 0.7119160891812921 -1 1 0
1083 361 2 -0.35 86.74382127843835 8.048715512608903 1.1098325903203972 -1 1 0
1349 450 2 -0.35 93.98602354098878 4.619832367122395 13.238673730379329 1 -1 6
1350 450 2 -0.35 94.7478306644256 3.451297970443789 11.384872966956259 1 -1 6
1348 450 1 0.7 94.3669271027072 4.0355651687830925 12.311773348667794 1 -1 6
1365 455 2 -0.35 112.2336946175244 15.361374363467686 2.9722515323349827 3 -3 1
1363 455 1 0.7 112.49356321641265 14.787099778878233 3.9460466919069925 3 -3 1
1364 455 2 -0.35 112.7534318153009 14.21282519428878 4.919841851479003 3 -3 1
194 65 2 -0.35 100.73675939846092 11.796937171248405 3.1625363333342733 -3 -2 10
1373 458 2 -0.35 104.1048639246117 21.39424779610348 0.7171091273935148 0 -9 -2
193 65 1 0.7 101.44537536944573 10.925393322602167 3.4521476686639607 -3 -2 10
195 65 2 -0.35 102.15399134043055 10.053849473955927 3.7417590039936477 -3 -2 10
1372 458 1 0.7 103.36299709574631 21.765956344335287 1.52770542851925 0 -9 -2
1109 370 2 -0.35 113.0953357131435 1.7209593183774519 3.556627558894892 1 1 1
1374 458 2 -0.35 102.6211302668809 22.137664892567095 2.338301729644985 0 -9 -2
306 102 2 -0.35 127.45599919178146 8.238447268703903 17.851433166147046 -3 3 2
304 102 1 0.7 127.48514046599246 8.413360360523361 16.70506664690114 -3 3 2
305 102 2 -0.35 127.51428174020347 8.588273452342818 15.558700127655236 -3 3 2
1110 370 2 -0.35 112.50082233802004 2.0444642265680653 5.775703587599574 1 1 1
1108 370 1 0.7 112.79807902558177 1.8827117724727584 4.666165573247233 1 1 1
1356 452 2 -0.35 124.59234837754808 19.95308763874656 9.319045590031175 -4 3 0
1354 452 1 0.7 124.11743897232815 19.407694665472516 8.412068434014538 -4 3 0
1355 452 2 -0.35 123.64252956710821 18.862301692198475 7.5050912779978995 -4 3 0
208 70 1 0.7 0.6167168493016976 25.951902484149276 4.908170053420155 2 -2 -5
209 70 2 -0.35 0.5912195966089553 27.007417972077793 5.388624988713205 2 -2 -5
210 70 2 -0.35 0.6422141019944397 24.896386996220762 4.4277151181271055 2 -2 -5
79 27 1 0.7 37.42355431433989 42.45410556994653 0.15021429315619594 2 -7 7
80 27 2 -0.35 37.16315339814729 42.77004019073898 1.235560633376406 2 -7 7
539 180 2 -0.35 36.01298053927193 37.33577918928161 3.9296101835223762 2 0 3
538 180 1 0.7 35.38255977836095 38.149709240187086 3.395112721933522 2 0 3
540 180 2 -0.35 34.75213901744997 38.96363929109256 2.860615260344674 2 0 3
465 155 2 -0.35 39.87811873032798 38.35031054335323 4.758429038374337 -6 -3 -3
463 155 1 0.7 40.44322435786778 37.625008328504755 5.465671802111202 -6 -3 -3
464 155 2 -0.35 41.00832998540758 36.89970611365628 6.172914565848067 -6 -3 -3
903 301 2 -0.35 49.31822473803308 26.69584870462891 8.059590960151388 4 -3 4
1119 373 2 -0.35 62.9176521359886 41.7018730735175 7.544339993572159 -10 0 2
1117 373 1 0.7 62.27200642537873 40.883915577864656 7.0347449075698965 -10 0 2
901 301 1 0.7 48.257276130784525 26.22947252539044 8.109403731764438 4 -3 4
1118 373 2 -0.35 61.62636071476885 40.06595808221182 6.525149821567633 -10 0 2
902 301 2 -0.35 47.19632752353597 25.76309634615197 8.159216503377486 4 -3 4
175 59 1 0.7 67.58598688489549 35.014056134509424 16.324800705407277 -1 3 -4
177 59 2 -0.35 67.90654396730615 34.780728003340755 15.23466257648947 -1 3 -4
176 59 2 -0.35 67.26542980248483 35.2473842656781 17.41493883432508 -1 3 -4
245 82 2 -0.35 94.826634532674 21.16899091316097 21.300166090056685 -4 -1 4
244 82 1 0.7 95.00171335509644 22.040527286708166 20.554933404567603 -4 -1 4
246 82 2 -0.35 95.17679217751889 22.91206366025536 19.809700719078517 -4 -1 4
3 1 2 -0.35 121.94236124103841 37.51299954711634 8.293229071731364 -1 -2 -10
795 265 2 -0.35 129.34321112701963 32.38874597503689 20.766171000392504 2 -5 6
1 1 1 0.7 122.00558774306526 37.57450955308614 7.136587844467742 -1 -2 -10
793 265 1 0.7 129.3154168056345 33.460180033795396 21.209856174170618 2 -5 6
794 265 2 -0.35 129.28762248424934 34.5316140925539 21.65354134794873 2 -5 6
761 254 2 -0.35 126.91081764300607 36.46196711751836 4.426908303686991 -2 -3 3
760 254 1 0.7 126.62733287543679 35.77658682070422 5.318810896628443 -2 -3 3
762 254 2 -0.35 126.34384810786752 35.09120652389008 6.210713489569895 -2 -3 3
2 1 2 -0.35 122.06881424509213 37.63601955905594 5.979946617204122 -1 -2 -10
1395 465 2 -0.35 1.798364272861929 46.96190242987225 0.7342894678061705 -5 0 2
1394 465 2 -0.35 0.22065156839028055 45.31559236573515 1.161940955435489 -5 0 2
1393 465 1 0.7 1.0095079206261046 46.1387473978037 0.9481152116208297 -5 0 2
56 19 2 -0.35 15.125077464911246 58.38357443560447 13.67947709547974 5 -1 -2
57 19 2 -0.35 17.281639622496375 57.54781570639122 13.861540290589302 5 -1 -2
55 19 1 0.7 16.20335854370381 57.965695070997846 13.770508693034522 5 -1 -2
1421 474 2 -0.35 1.5977969963627303 52.36785137676671 11.804319661237205 -2 -5 -2
1420 474 1 0.7 1.2088033712708677 52.547026870505576 10.726275087909324 -2 -5 -2
1422 474 2 -0.35 0.819809746179005 52.72620236424444 9.648230514581442 -2 -5 -2
484 162 1 0.7 10.4339384398309 52.209990862679405 6.919261757112685 2 3 -5
485 162 2 -0.35 10.270298857398112 53.31760197717111 6.615914256520799 2 3 -5
486 162 2 -0.35 10.59757802226369 51.10237974818771 7.22260925770457 2 3 -5
228 76 2 -0.35 28.60094629800372 46.59305326586949 18.73824903633938 2 11 6
479 160 2 -0.35 38.1177543814162 50.70466661775705 12.166701345588692 -4 3 0
227 76 2 -0.35 28.585891204320923 46.2953030656727 16.437484345539477 2 11 6
480 160 2 -0.35 36.85351878694213 49.39691250834295 13.606801186218057 -4 3 0
478 160 1 0.7 37.48563658417917 50.050789563049996 12.886751265903374 -4 3 0
226 76 1 0.7 28.59341875116232 46.44417816577109 17.587866690939432 2 11 6
1368 456 2 -0.35 33.70156033070743 60.04567622078101 3.4304256839084384 1 1 0
1366 456 1 0.7 34.20370176316392 59.046875485056944 3.7400239270040205 1 1 0
966 322 2 -0.35 34.9417961092773 45.42084777649096 20.166703376007874 1 2 1
1367 456 2 -0.35 34.7058431956204 58.04807474933288 4.049622170099602 1 1 0
964 322 1 0.7 36.01707002236071 45.755070778774915 20.445416484032393 1 2 1
965 322 2 -0.35 37.09234393544413 46.08929378105887 20.724129592056908 1 2 1
29 10 2 -0.35 58.60833633041546 49.148931861984565 13.076361527833228 -9 -1 2
28 10 1 0.7 59.32625590925157 50.04541693605549 12.913554923867501 -9 -1 2
30 10 2 -0.35 60.04417548808768 50.94190201012641 12.750748319901774 -9 -1 2
628 210 1 0.7 46.70080372593083 63.813050512918295 12.478797376748618 5 2 -6
630 210 2 -0.35 45.82114580533526 64.43122431279224 12.91430064410826 5 2 -6
629 210 2 -0.35 47.5804616465264 63.19487671304435 12.043294109388974 5 2 -6
494 165 2 -0.35 75.39977095767127 65.37159653205264 6.649693308837202 -1 5 5
493 165 1 0.7 75.80449529415658 65.10391636504838 7.703327751919473 -1 5 5
495 165 2 -0.35 76.20921963064188 64.83623619804413 8.756962195001744 -1 5 5
1469 490 2 -0.35 74.6447586937833 54.358236676880395 21.627484920120445 4 -2 4
1468 490 1 0.7 74.62179278718601 53.26125140105717 22.00391004117503 4 -2 4
543 181 2 -0.35 110.51057472967173 48.32579924791771 5.205579380685979 -2 4 0
541 181 1 0.7 110.62025436309202 48.29024266791783 6.359835031585465 -2 4 0
542 181 2 -0.35 110.72993399651232 48.25468608791796 7.5140906824849525 -2 4 0
908 303 2 -0.35 103.92242585330466 64.51594333108363 1.255759638285062 4 -3 1
907 303 1 0.7 103.36321660463389 64.3967074944076 0.24646888163706424 4 -3 1
820 274 1 0.7 110.32043781803692 56.41725530985044 10.409519961606803 -1 -1 3
822 274 2 -0.35 110.74581498610429 56.22745779934238 11.47189050425727 -1 -1 3
821 274 2 -0.35 109.89506064996955 56.60705282035849 9.347149418956333 -1 -1 3
695 232 2 -0.35 117.77135972521272 64.64776334904221 18.32993280442834 -4 0 -1
694 232 1 0.7 117.0033312965264 64.56928345997584 17.464153825853575 -4 0 -1
696 232 2 -0.35 116.23530286784008 64.49080357090945 16.598374847278812 -4 0 -1
311 104 2 -0.35 118.07125961366806 58.69160907780985 1.8650952466469644 5 -2 0
310 104 1 0.7 119.03665517436946 58.61158770536244 1.2269667397356978 5 -2 0
312 104 2 -0.35 120.00205073507087 58.53156633291503 0.588838232824431 5 -2 0
840 280 2 -0.35 126.7585416516292 63.50598091389551 0.7859384060510242 0 2 3
838 280 1 0.7 127.14913913153087 62.4244782920919 0.9388622031808241 0 2 3
599 200 2 -0.35 3.7000612323325233 70.05856342352588 0.8843148357862187 0 -2 -3
598 200 1 0.7 4.078530676701324 69.62530547849276 134.87701724681588 0 -2 -4
1100 367 2 -0.35 134.39174221785817 72.93759107821616 19.62842914189279 -9 -1 2
610 204 1 0.7 4.262388874657676 77.54426810329652 18.722051934327634 4 0 -1
612 204 2 -0.35 4.04896671342961 76.52799559770152 19.239005680296223 4 0 -1
611 204 2 -0.35 4.475811035885742 78.56054060889151 18.205098188359045 4 0 -1
1291 431 1 0.7 38.501447127661415 89.33224894348623 14.800318332370331 -5 2 -7
1293 431 2 -0.35 38.86284247970357 90.38659129239315 15.121808006892701 -5 2 -7
1292 431 2 -0.35 38.140051775619256 88.27790659457932 14.478828657847961 -5 2 -7
607 203 1 0.7 42.43443839907515 77.85873149367414 7.403848587411452 3 -3 2
608 203 2 -0.35 41.586943202624006 78.62871496792484 7.218167836190914 3 -3 2
609 203 2 -0.35 43.2819335955263 77.08874801942346 7.58952933863199 3 -3 2
967 323 1 0.7 66.61899209085358 69.86661939629236 17.804076506183176 -7 1 0
969 323 2 -0.35 65.9750703172187 69.39350535798822 18.64498545262144 -7 1 0
369 123 2 -0.35 50.622777077501794 75.17022125704983 4.940527923614951 -5 1 -2
368 123 2 -0.35 49.517828590063864 77.20373648978318 4.778340876190074 -5 1 -2
367 123 1 0.7 50.07030283378283 76.1869788734165 4.859434399902512 -5 1 -2
1329 443 2 -0.35 68.47624496074982 69.22795801922538 10.257752490020435 -6 2 -6
1327 443 1 0.7 67.43801578468985 69.13125176723959 10.766012343646022 -6 2 -6
1328 443 2 -0.35 66.39978660862988 69.0345455152538 11.274272197271607 -6 2 -6
968 323 2 -0.35 67.26291386448848 70.33973343459651 16.963167559744914 -7 1 0
1001 334 2 -0.35 100.47261130374278 71.98140405158236 19.323986945213143 -2 -4 4
1000 334 1 0.7 99.58995027874893 71.62903971759235 18.658893800540888 -2 -4 4
1002 334 2 -0.35 98.70728925375509 71.27667538360234 17.993800655868633 -2 -4 4
1099 367 1 0.7 134.7468780484711 72.11520781469777 20.365425959863654 -9 -1 2
1101 367 2 -0.35 0.10201387908404058 71.29282455117938 21.102422777834516 -8 -1 2
1304 435 2 -0.35 2.0282559218844503 99.1439664771647 17.25893528964147 -3 -7 3
1303 435 1 0.7 1.0451251531106325 99.51821216489473 16.77006510574266 -3 -7 3
1305 435 2 -0.35 0.06199438433681481 99.89245785262477 16.28119492184385 -3 -7 3
1077 359 2 -0.35 4.894990196612813 98.21995177335471 18.490160505270808 -3 2 2
1075 359 1 0.7 4.697342324856598 99.17254924217087 19.121898885611316 -3 2 2
1076 359 2 -0.35 4.499694453100379 100.12514671098704 19.753637265951834 -3 2 2
896 299 2 -0.35 134.93294652235826 106.99987912136768 18.70554761542604 -3 -4 -3
895 299 1 0.7 1.0830350293221032 106.8506962496355 18.73086355764738 -2 -4 -3
897 299 2 -0.35 2.2331235362859285 106.70151337790334 18.756179499868715 -2 -4 -3
1265 422 2 -0.35 39.976591755923806 104.19503501181178 11.586890522709542 1 0 3
1264 422 1 0.7 39.483413668432554 105.21539559027303 11.83435701325115 1 0 3
162 54 2 -0.35 33.53922297035427 109.32594505375482 5.417271820055784 7 0 4
1266 422 2 -0.35 38.9902355809413 106.23575616873428 12.081823503792759 1 0 3
160 54 1 0.7 32.447697668029726 109.68891170106569 5.5670307173674125 7 0 4
161 54 2 -0.35 31.35617236570518 110.05187834837656 5.716789614679041 7 0 4
482 161 2 -0.35 43.331869229025365 94.57352914072354 5.0502270099508175 -9 -2 0
481 161 1 0.7 43.8566008773831 95.60476952581504 5.1326889124776764 -9 -2 0
483 161 2 -0.35 44.38133252574084 96.63600991090655 5.215150815004535 -9 -2 0
76 26 1 0.7 64.39357912708539 92.22006081287881 9.230235571485492 6 2 7
77 26 2 -0.35 65.44430018699538 92.6957042135756 9.106346065730834 6 2 7
78 26 2 -0.35 63.342858067175406 91.74441741218203 9.35412507724015 6 2 7
456 152 2 -0.35 59.888258044545005 93.51358703647624 7.160186394739205 7 1 2
454 152 1 0.7 60.07745672395301 92.41221879368898 7.471300286248309 7 1 2
455 152 2 -0.35 60.266655403361014 91.31085055090173 7.7824141777574125 7 1 2
1062 354 2 -0.35 50.29725891999309 112.99965503177141 13.74859849153793 1 -3 0
1060 354 1 0.7 50.249473493172346 113.17248342336129 12.602541381248768 1 -3 0
817 273 1 0.7 61.68488524350151 99.66544885991954 19.67958694619858 0 -1 -2
818 273 2 -0.35 62.4613789863771 99.84577499496831 18.83688892656587 0 -1 -2
819 273 2 -0.35 60.90839150062592 99.48512272487075 20.52228496583129 0 -1 -2
65 22 2 -0.35 64.1998806273126 104.05021463135519 16.489166453824605 3 -1 -2
64 22 1 0.7 64.56007500488566 104.74119180504866 17.348474638237455 3 -1 -2
66 22 2 -0.35 64.92026938245871 105.43216897874213 18.2077828226503 3 -1 -2
1370 457 2 -0.35 70.4706791096934 104.40669792577856 13.617496063264243 2 4 -1
1371 457 2 -0.35 69.40175793292543 105.59218409058452 15.301072634412789 2 4 -1
1369 457 1 0.7 69.93621852130943 104.99944100818153 14.459284348838516 2 4 -1
926 309 2 -0.35 110.81097287937138 93.91767030609417 10.185521710701405 2 -4 -4
925 309 1 0.7 111.2783254876525 94.95992798048185 10.387710928297295 2 -4 -4
927 309 2 -0.35 111.74567809593361 96.00218565486952 10.589900145893187 2 -4 -4
1208 403 2 -0.35 128.94117312608972 92.18069783820201 0.22240373461138258 -1 6 -2
394 132 1 0.7 128.8056922674655 106.73296812293646 17.25701735998672 -1 -3 4
396 132 2 -0.35 128.3960491495852 106.46357641392859 18.30831209653362 -1 -3 4
395 132 2 -0.35 129.2153353853458 107.00235983194432 16.205722623439815 -1 -3 4
329 110 2 -0.35 114.95707457217581 105.87898006271202 8.70107910336149 1 -3 0
328 110 1 0.7 114.45201215640209 105.05634747287148 8.057815877066464 1 -3 0
330 110 2 -0.35 113.94694974062837 104.23371488303094 7.414552650771438 1 -3 0
1207 403 1 0.7 127.82038214834886 92.20581619624306 0.5203914060037409 -1 6 -2
138 46 2 -0.35 21.681477890054133 126.69290645203615 12.67857650001558 0 6 1
137 46 2 -0.35 22.461573019581028 124.94832814961096 13.993984473079385 0 6 1
136 46 1 0.7 22.07152545481758 125.82061730082356 13.336280486547482 0 6 1
1232 411 2 -0.35 134.6195526945388 126.09158818077036 10.177136122782532 3 1 -2
1411 471 1 0.7 39.84514226659965 115.51158875847656 20.45656457214919 -3 4 1
89 30 2 -0.35 37.55729607126602 118.54706112618264 17.335017644163976 0 1 -3
88 30 1 0.7 38.30467142370091 118.51632487625851 18.221632197119106 0 1 -3
90 30 2 -0.35 39.052046776135796 118.48558862633438 19.108246750074237 0 1 -3
1413 471 2 -0.35 38.87314775526072 115.84626010876963 20.99398596847019 -3 4 1
1412 471 2 -0.35 40.81713677793858 115.17691740818351 19.91914317582819 -3 4 1
46 16 1 0.7 43.40260454571966 127.89717203469104 10.611812531865926 1 3 -4
48 16 2 -0.35 42.52893295831986 127.90750876346532 9.848798043530923 1 3 -4
1061 354 2 -0.35 50.2016880663516 113.34531181495117 11.456484270959606 1 -3 0
1403 468 2 -0.35 58.914726262697656 124.53510535881226 19.263453167350004 1 4 1
47 16 2 -0.35 44.276276133119474 127.88683530591675 11.374827020200929 1 3 -4
1404 468 2 -0.35 58.22711405159924 126.747510341072 19.385328684281127 1 4 1
1402 468 1 0.7 58.57092015714845 125.64130784994212 19.324390925815564 1 4 1
159 53 2 -0.35 58.11211673698678 122.99315385532923 134.19680467835346 2 2 0
717 239 2 -0.35 69.1440737552839 131.09612016156157 10.135788768388961 3 -1 3
716 239 2 -0.35 70.46535577915083 129.31786208372205 9.447013026943491 3 -1 3
715 239 1 0.7 69.80471476721736 130.20699112264182 9.791400897666225 3 -1 3
566 189 2 -0.35 73.44047643321008 117.31082874601724 11.982885676747003 7 2 2
565 189 1 0.7 72.9222584783516 116.799660438517 11.079692943899236 7 2 2
567 189 2 -0.35 72.40404052349311 116.28849213101677 10.176500211051469 7 2 2
522 174 2 -0.35 112.43574069108409 133.41202403546413 10.127691563839187 -4 -6 -1
230 77 2 -0.35 92.76996631652153 125.84059854363858 19.15888339404084 1 -5 -2
231 77 2 -0.35 91.04211478438866 127.30192299060623 18.647551854238937 1 -5 -2
229 77 1 0.7 91.9060405504551 126.57126076712241 18.903217624139888 1 -5 -2
699 233 2 -0.35 100.57105405405828 117.78791134514218 18.197383360520014 5 0 -2
697 233 1 0.7 99.97198180192636 118.77999830766213 18.247141731900346 5 0 -2
698 233 2 -0.35 99.37290954979444 119.77208527018207 18.296900103280677 5 0 -2
520 174 1 0.7 113.1785281734581 132.52125522669965 10.107749513783368 -4 -6 -1
521 174 2 -0.35 113.92131565583212 131.63048641793515 10.087807463727547 -4 -6 -1
1233 411 2 -0.35 133.41100861638648 128.0364307296014 10.55051082922893 3 1 -2
1231 411 1 0.7 134.01528065546265 127.06400945518587 10.36382347600573 3 1 -2
1449 483 2 -0.35 120.58851631419213 118.27413686551296 13.008777039751333 5 2 0
1447 483 1 0.7 120.40168825835902 117.22688067484432 12.546230016562863 5 2 0
1448 483 2 -0.35 120.2148602025259 116.17962448417569 12.083682993374392 5 2 0
591 197 2 -0.35 56.05538409538639 7.140407014043163 24.118815447965225 4 -4 3
590 197 2 -0.35 54.44392933940558 6.353646583230103 25.590760281829738 4 -4 3
589 197 1 0.7 55.249656717395986 6.747026798636633 24.85478786489748 4 -4 3
124 42 1 0.7 66.24600142810151 5.92639106272189 41.28712363699735 -7 4 8
125 42 2 -0.35 65.49869916060103 5.67405064332827 40.4365569825082 -7 4 8
126 42 2 -0.35 66.99330369560198 6.178731482115509 42.13769029148649 -7 4 8
1202 401 2 -0.35 68.0822797633905 19.838943657615662 32.84733368340284 3 5 -1
1295 432 2 -0.35 63.587658982912856 4.231340197261949 36.85661823110586 -3 2 -5
1296 432 2 -0.35 65.87038271731609 4.645371763991208 36.86887441897626 -3 2 -5
1294 432 1 0.7 64.72902085011448 4.438355980626579 36.862746325041066 -3 2 -5
185 62 2 -0.35 57.49514042090699 13.14833192411217 42.387784219122 -4 -1 4
184 62 1 0.7 56.44740030703698 12.750285677838697 42.08878615956878 -4 -1 4
186 62 2 -0.35 55.399660193166966 12.352239431565224 41.789788100015556 -4 -1 4
1201 401 1 0.7 67.98251724055064 18.961065377385353 33.59898331197876 3 5 -1
201 67 2 -0.35 70.7373455162744 21.38666921291564 32.44010935643128 0 5 6
1203 401 2 -0.35 67.88275471771077 18.083187097155044 34.35063294055469 3 5 -1
1158 386 2 -0.35 73.95865411553949 3.140222352726827 44.85482066078672 -4 4 1
199 67 1 0.7 70.3678959724436 22.377121102189033 31.962498542486774 0 5 6
444 148 2 -0.35 96.10852458638361 11.277579479347713 31.311278428478836 -2 -5 9
443 148 2 -0.35 95.96029189033045 10.950469713946445 29.01924302971328 -2 -5 9
442 148 1 0.7 96.03440823835703 11.114024596647079 30.165260729096058 -2 -5 9
596 199 2 -0.35 95.48743275733932 13.307655088667493 43.74938410894149 5 -2 1
701 234 2 -0.35 99.49342888783357 0.5603952463671246 43.63744573932035 0 2 -1
595 199 1 0.7 94.95918435513077 13.871743143925121 44.614461152609344 5 -2 1
801 267 2 -0.35 108.24803786665088 4.0831252662576105 44.29359211758371 -1 -2 0
320 107 2 -0.35 113.691131512886 6.101252469295056 31.739832859648534 -2 2 -7
211 71 1 0.7 129.1566818092209 7.0551295795446025 35.48871164021196 -7 5 5
213 71 2 -0.35 129.831748307832 6.1746911432898575 35.82740528115846 -7 5 5
212 71 2 -0.35 128.48161531060984 7.935568015799348 35.15001799926546 -7 5 5
321 107 2 -0.35 115.0307427596662 7.446004176688624 30.405859639170018 -2 2 -7
319 107 1 0.7 114.3609371362761 6.77362832299184 31.072846249409277 -2 2 -7
623 208 2 -0.35 117.79091450429715 10.58561693034699 30.34333314018249 1 0 7
624 208 2 -0.35 116.1821123099625 11.453327779106273 31.772050530868512 1 0 7
622 208 1 0.7 116.98651340712982 11.019472354726632 31.057691835525503 1 0 7
1416 472 2 -0.35 119.92371859474986 0.6099290270823144 34.15945226904785 0 -3 2
1414 472 1 0.7 120.87122436892065 0.6732629352816372 34.82565165660667 0 -3 2
1415 472 2 -0.35 121.81873014309143 0.7365968434809599 35.491851044165486 0 -3 2
952 318 1 0.7 3.619846860559099 31.241579023313946 34.80339188313719 4 0 -2
954 318 2 -0.35 3.791819259976067 31.501716068094737 35.920689610590145 4 0 -2
953 318 2 -0.35 3.4478744611421304 30.981441978533155 33.68609415568422 4 0 -2
1059 353 2 -0.35 7.906904139760242 33.61236436374079 30.941598789595176 -5 -6 1
1057 353 1 0.7 7.828926304739236 32.683719994528104 30.250846234206826 -5 -6 1
1058 353 2 -0.35 7.75094846971823 31.755075625315424 29.56009367881848 -5 -6 1
113 38 2 -0.35 2.308851441088444 25.418544406521516 22.146304301356913 2 -5 -3
112 38 1 0.7 2.831300926587473 26.439126159601212 22.322541131739744 2 -5 -3
405 135 2 -0.35 15.104634690966378 43.56836689224271 38.45736125384088 -1 -2 6
114 38 2 -0.35 3.353750412086502 27.459707912680912 22.498777962122578 2 -5 -3
403 135 1 0.7 15.127603889290173 42.49505624179197 38.017956356786385 -1 -2 6
404 135 2 -0.35 15.150573087613969 41.421745591341235 37.578551459731884 -1 -2 6
869 290 2 -0.35 34.6689239976017 38.7157758294645 39.33282554518499 5 2 -2
868 290 1 0.7 33.565515868663226 39.05428868869794 39.21663800227592 5 2 -2
870 290 2 -0.35 32.46210773972475 39.39280154793138 39.100450459366854 5 2 -2
677 226 2 -0.35 53.15197385004136 25.69879781060114 23.562445880568212 2 5 2
676 226 1 0.7 53.06642814530837 26.721879897475795 24.102431969202087 2 5 2
678 226 2 -0.35 52.98088244057538 27.74496198435045 24.642418057835958 2 5 2
1235 412 2 -0.35 54.338412423555525 26.390852416703087 27.33665608331771 0 -7 3
1234 412 1 0.7 55.45371326152144 26.49927639420645 27.636569874155285 0 -7 3
1236 412 2 -0.35 56.569014099487354 26.607700371709814 27.936483664992863 0 -7 3
736 246 1 0.7 54.48807083881543 36.035926082108006 30.91099655683597 -4 2 -3
737 246 2 -0.35 55.31749867322646 35.767243996250244 31.676149746886225 -4 2 -3
738 246 2 -0.35 53.65864300440441 36.30460816796576 30.14584336678571 -4 2 -3
1496 499 2 -0.35 48.81176600497245 34.63500481547233 33.205029481752774 6 -2 1
1497 499 2 -0.35 47.036168503113295 33.73001957993475 34.39273956205267 6 -2 1
1495 499 1 0.7 47.92396725404287 34.18251219770354 33.79888452190272 6 -2 1
758 253 2 -0.35 58.88347660358694 36.65281059875225 42.080410376435154 0 3 -3
757 253 1 0.7 59.53445205547105 37.42501819943967 41.509861182687985 0 3 -3
759 253 2 -0.35 60.18542750735515 38.19722580012709 40.93931198894081 0 3 -3
1314 438 2 -0.35 71.32035056493078 23.44917940135482 24.72331837256812 -5 -1 1
1312 438 1 0.7 70.67688717285381 24.174769368110663 25.359772662520335 -5 -1 1
1313 438 2 -0.35 70.03342378077683 24.90035933486651 25.996226952472547 -5 -1 1
1171 391 1 0.7 69.1195366680725 23.751912578732853 36.82349822335785 4 -1 4
1173 391 2 -0.35 68.83347640121107 23.059388241468877 35.93795908474168 4 -1 4
1172 391 2 -0.35 69.40559693493393 24.444436915996828 37.70903736197402 4 -1 4
200 67 2 -0.35 69.99844642861281 23.367572991462428 31.48488772854227 0 5 6
1460 487 2 -0.35 83.32749465804227 37.08928942495918 35.967468066292476 0 4 -4
1459 487 1 0.7 82.95968808995283 35.995255257802235 36.08325912624446 0 4 -4
119 40 2 -0.35 89.82763851335015 42.106338149175656 31.856569782605966 -2 -1 6
118 40 1 0.7 90.26953561735219 42.726849914921296 30.981760032977967 -2 -1 6
1461 487 2 -0.35 82.5918815218634 34.90122109064529 36.19905018619643 0 4 -4
1490 497 2 -0.35 87.87552806147045 31.467936714214233 35.41075119939975 -10 -4 -4
1489 497 1 0.7 88.30033689915916 31.51317075080142 36.48921832145577 -10 -4 -4
1491 497 2 -0.35 88.72514573684788 31.55840478738861 37.567685443511806 -10 -4 -4
120 40 2 -0.35 90.71143272135423 43.34736168066694 30.106950283349967 -2 -1 6
284 95 2 -0.35 96.13413448337873 42.8081409487709 29.956916509827888 -2 -1 8
283 95 1 0.7 97.12054514504162 43.35399004044556 30.23012481071751 -2 -1 8
285 95 2 -0.35 98.1069558067045 43.89983913212021 30.50333311160713 -2 -1 8
729 243 2 -0.35 90.52559276097756 38.31462856880492 33.41502435384673 1 4 2
728 243 2 -0.35 91.95086181049382 37.903773511843355 35.19889830081283 1 4 2
727 243 1 0.7 91.23822728573569 38.10920104032414 34.30696132732978 1 4 2
1409 470 2 -0.35 93.33121047815149 42.38493662556625 34.082005144561606 -2 -5 -2
1408 470 1 0.7 93.84956021966333 41.37867484884667 33.82833058496664 -2 -5 -2
1410 470 2 -0.35 94.36790996117516 40.3724130721271 33.57465602537168 -2 -5 -2
683 228 2 -0.35 111.43115603199394 27.548696941288195 34.47799544766977 0 4 -1
682 228 1 0.7 112.51922526269398 27.41815677655646 34.097647429931584 0 4 -1
684 228 2 -0.35 113.60729449339402 27.287616611824728 33.717299412193405 0 4 -1
855 285 2 -0.35 5.359687792151265 49.92221957137669 32.92922604761457 -2 4 1
853 285 1 0.7 6.1805744426975755 49.13717357893832 32.69375227686238 -2 4 1
854 285 2 -0.35 7.001461093243886 48.352127586499954 32.45827850611019 -2 4 1
1247 416 2 -0.35 19.30481671795642 53.5139584854508 39.38983221142084 2 -1 6
1248 416 2 -0.35 19.457523196085123 51.62344621599015 40.7258876333835 2 -1 6
1246 416 1 0.7 19.381169957020774 52.56870235072048 40.057859922402166 2 -1 6
95 32 2 -0.35 40.29735920345103 55.95068822234047 34.13226857035728 -1 -7 6
94 32 1 0.7 41.24779272250549 56.46043496028874 34.55939195886271 -1 -7 6
96 32 2 -0.35 42.19822624155994 56.970181698237006 34.98651534736814 -1 -7 6
932 311 2 -0.35 28.217650425155153 47.25458582497006 42.265536879454174 0 6 1
931 311 1 0.7 27.924121806702516 48.35435442020979 42.04204194198648 0 6 1
933 311 2 -0.35 27.63059318824988 49.45412301544952 41.81854700451879 0 6 1
474 158 2 -0.35 49.92552664534915 56.89339032524229 38.30147347094042 0 -1 -4
472 158 1 0.7 49.08470392767882 57.08629249157757 37.52596982061188 0 -1 -4
473 158 2 -0.35 48.243881210008475 57.27919465791285 36.75046617028334 0 -1 -4
123 41 2 -0.35 57.384164982021964 55.37525432828425 35.661594886095365 5 -5 9
121 41 1 0.7 57.57529001709746 55.95810825499762 36.64615190378562 5 -5 9
122 41 2 -0.35 57.76641505217295 56.540962181710995 37.63070892147587 5 -5 9
1470 490 2 -0.35 74.59882688058873 52.16426612523395 22.380335162229613 4 -2 4
1290 430 2 -0.35 89.46688253438593 49.818181036862505 31.05633680262777 5 4 9
1005 335 2 -0.35 90.47306277882022 64.95910739436864 34.46137318550376 1 4 -4
1289 430 2 -0.35 91.4154723887505 50.84668966011871 31.782675285257426 5 4 9
1288 430 1 0.7 90.44117746156822 50.332435348490606 31.419506043942597 5 4 9
1004 335 2 -0.35 91.27624237640445 67.07047504407629 34.989983800034146 1 4 -4
1003 335 1 0.7 90.87465257761234 66.01479121922246 34.72567849276895 1 4 -4
349 117 1 0.7 0.20164783530972435 70.3276603000084 24.66526947875486 4 6 -5
351 117 2 -0.35 134.80654330767396 69.50954822943186 25.386508033061133 3 6 -5
1031 344 2 -0.35 6.406874599401261 88.18371720520793 35.80817163666271 -2 0 10
1030 344 1 0.7 6.3312755602888044 88.58865587839134 36.89256522583865 -2 0 10
1032 344 2 -0.35 6.255676521176348 88.99359455157476 37.97695881501459 -2 0 10
1048 350 1 0.7 4.078959065268934 88.31347028557285 32.23293851666948 4 2 6
1049 350 2 -0.35 4.906042976845184 87.66347751804165 31.744019704013812 4 2 6
1050 350 2 -0.35 3.2518751536926835 88.96346305310406 32.721857329325154 4 2 6
1185 395 2 -0.35 38.22435297329177 83.42745212528628 27.355839699938702 1 -4 2
1183 395 1 0.7 37.93016541365193 82.37482670846211 27.744469873250143 1 -4 2
1184 395 2 -0.35 37.63597785401208 81.32220129163794 28.133100046561584 1 -4 2
1277 426 2 -0.35 25.216657119470373 71.74866981418442 26.827297546497668 -4 1 -1
1276 426 1 0.7 25.962167703938462 71.36228337938071 26.02697293020459 -4 1 -1
1278 426 2 -0.35 26.70767828840655 70.975896944577 25.226648313911515 -4 1 -1
341 114 2 -0.35 43.68953318856074 78.42081411751091 41.20203529576405 2 -1 1
340 114 1 0.7 43.492937551444435 79.32704228524646 41.89895757512593 2 -1 1
342 114 2 -0.35 43.29634191432813 80.23327045298201 42.595879854487805 2 -1 1
324 108 2 -0.35 43.12262504973101 70.05525271890414 26.04501906967484 1 6 -2
323 108 2 -0.35 43.91130355048428 69.52279631504726 23.929156030523842 1 6 -2
322 108 1 0.7 43.516964300107645 69.7890245169757 24.98708755009934 1 6 -2
783 261 2 -0.35 62.97995766199363 69.7992713119505 32.83472445880299 -7 -11 2