LAMMPS (29 Aug 2024 - Update 1)
  using 1 OpenMP thread(s) per MPI task
package gpu 1 gpuID 0
# GCMC for CO2 molecular fluid, rigid/small/nvt dynamics
# Rigid CO2 TraPPE model
# [Potoff and J.I. Siepmann, Vapor-liquid equilibria of
# mixtures containing alkanes, carbon dioxide and
# nitrogen AIChE J., 47,1676-1682 (2001)].

# global model settings

units           real
atom_style      full
boundary        p p p
pair_style      lj/cut/coul/long  12
pair_modify     mix arithmetic shift yes
kspace_style    pppm 1.0e-4
bond_style      harmonic
angle_style     harmonic
neigh_modify    one 4000

# box, start molecules on simple cubic lattice
region          mbox block 0 ${lbox} 0 ${lbox} 0 ${lbox} units box
region          mbox block 0 135.0 0 ${lbox} 0 ${lbox} units box
region          mbox block 0 135.0 0 135.0 0 ${lbox} units box
region          mbox block 0 135.0 0 135.0 0 135.0 units box
create_box      2 mbox                                       bond/types 1                                angle/types 1                               extra/bond/per/atom 2                       extra/angle/per/atom 1                      extra/special/per/atom 2
Created orthogonal box = (0 0 0) to (135 135 135)
  1 by 1 by 1 MPI processor grid
molecule        co2mol ../CO2.txt
Read molecule template co2mol:
# CO2 molecule file. TraPPE model.
  1 molecules
  0 fragments
  3 atoms with max type 2
  2 bonds with max type 1
  1 angles with max type 1
  0 dihedrals with max type 0
  0 impropers with max type 0
create_atoms   	0 random ${nmols} 34578 mbox mol co2mol 464563 overlap 1.2
create_atoms   	0 random 500 34578 mbox mol co2mol 464563 overlap 1.2
Created 1500 atoms
  using lattice units in orthogonal box = (0 0 0) to (135 135 135)
  create_atoms CPU = 0.008 seconds

# rigid CO2 TraPPE model

pair_coeff      1   1  0.053649   2.800
pair_coeff      2   2  0.156973   3.050
bond_coeff      1       0       1.16
angle_coeff     1       0       180

# masses

mass 1 12.0107
mass 2 15.9994

write_data init_conf.data  pair ij
System init for write_data ...
PPPM initialization ...
  using 12-bit tables for long-range coulomb (src/kspace.cpp:342)
  G vector (1/distance) = 0.16093008
  grid = 27 27 27
  stencil order = 5
  estimated absolute RMS force accuracy = 0.039376449
  estimated relative force accuracy = 0.00011858101
  using double precision FFTW3
  3d grid and FFT values/proc = 32768 19683
Generated 1 of 1 mixed pair_coeff terms from arithmetic mixing rule

# MD settings

group           co2 type 1 2
1500 atoms in group co2
velocity       	all create 300 54654
timestep        0.25

# rigid constraints with thermostat
fix             myrigidnvt co2 rigid/nvt molecule temp 300 300 $(100*dt)
fix             myrigidnvt co2 rigid/nvt molecule temp 300 300 25
  500 rigid bodies with 1500 atoms

thermo 1000
thermo_style custom step temp density press ke pe etotal


variable    mvol equal vol
variable    mden equal density
variable	mtmp equal temp
variable    mpre equal press

fix mydat all ave/time 1 4000 4000 v_mtmp v_mden v_mpre file statistics.dat ## every 1ps

run 4000000 ## 1ns

CITE-CITE-CITE-CITE-CITE-CITE-CITE-CITE-CITE-CITE-CITE-CITE-CITE

Your simulation uses code contributions which should be cited:

- GPU package (short-range, long-range and three-body potentials): doi:10.1016/j.cpc.2010.12.021, doi:10.1016/j.cpc.2011.10.012, doi:10.1016/j.cpc.2013.08.002, doi:10.1016/j.commatsci.2014.10.068, doi:10.1016/j.cpc.2016.10.020, doi:10.3233/APC200086

@Article{Brown11,
 author = {W. M. Brown and P. Wang and S. J. Plimpton and A. N. Tharrington},
 title = {Implementing Molecular Dynamics on Hybrid High Performance Computers---Short Range Forces},
 journal = {Comput.\ Phys.\ Commun.},
 year =    2011,
 volume =  182,
 pages =   {898--911},
 doi =     {10.1016/j.cpc.2010.12.021}
}

@Article{Brown12,
 author = {W. M. Brown and A. Kohlmeyer and S. J. Plimpton and A. N. Tharrington},
 title = {Implementing Molecular Dynamics on Hybrid High Performance Computers - Particle-Particle Particle-Mesh},
 journal = {Comput.\ Phys.\ Commun.},
 year =    2012,
 volume =  183,
 doi =     {10.1016/j.cpc.2011.10.012},
 pages =   {449--459}
}

@Article{Brown13,
 author = {W. M. Brown and Y. Masako},
 title = {Implementing Molecular Dynamics on Hybrid High Performance Computers---Three-Body Potentials},
 journal = {Comput.\ Phys.\ Commun.},
 year =    2013,
 volume =  184,
 pages =   {2785--2793},
 doi =     {10.1016/j.cpc.2013.08.002},
}

@Article{Trung15,
 author = {T. D. Nguyen and S. J. Plimpton},
 title = {Accelerating Dissipative Particle Dynamics Simulations for Soft Matter Systems},
 journal = {Comput.\ Mater.\ Sci.},
 year =    2015,
 doi =     {10.1016/j.commatsci.2014.10.068},
 volume =  100,
 pages =   {173--180}
}

@Article{Trung17,
 author = {T. D. Nguyen},
 title = {{GPU}-Accelerated {T}ersoff Potentials for Massively Parallel
    Molecular Dynamics Simulations},
 journal = {Comput.\ Phys.\ Commun.},
 year =    2017,
 doi =     {10.1016/j.cpc.2016.10.020},
 volume =  212,
 pages =   {113--122}
}

@inproceedings{Nikolskiy19,
 author = {V. Nikolskiy and V. Stegailov},
 title = {{GPU} Acceleration of Four-Site Water Models in {LAMMPS}},
 booktitle = {Proceedings of the International Conference on Parallel
    Computing (ParCo 2019), Prague, Czech Republic},
 doi =     {10.3233/APC200086},
 year =    2019
}

CITE-CITE-CITE-CITE-CITE-CITE-CITE-CITE-CITE-CITE-CITE-CITE-CITE

PPPM initialization ...
  using 12-bit tables for long-range coulomb (src/kspace.cpp:342)
  G vector (1/distance) = 0.16093008
  grid = 27 27 27
  stencil order = 5
  estimated absolute RMS force accuracy = 0.039376449
  estimated relative force accuracy = 0.00011858101
  using double precision FFTW3
  3d grid and FFT values/proc = 32768 19683
Generated 1 of 1 mixed pair_coeff terms from arithmetic mixing rule
Per MPI rank memory allocation (min/avg/max) = 10.38 | 10.38 | 10.38 Mbytes
   Step          Temp         Density         Press          KinEng         PotEng         TotEng    
         0   307.41471      0.01485129    -173.66091      762.70438      17316.32       18079.024    
      1000   317.49016      0.01485129     13.404378      787.70183     -18.446583      769.25525    
      2000   309.98173      0.01485129     10.195651      769.0732      -24.310582      744.76262    
      3000   295.37641      0.01485129     3.8208658      732.83702     -27.930518      704.9065     
      4000   294.24014      0.01485129     8.3204505      730.01791     -34.993205      695.0247     
      5000   301.88862      0.01485129     10.029806      748.99398     -36.976231      712.01775    
      6000   294.87325      0.01485129     9.0331817      731.58865     -42.663671      688.92498    
      7000   291.13258      0.01485129     8.0832875      722.30796     -46.234158      676.0738     
      8000   304.71882      0.01485129     8.1376427      756.0158      -49.184621      706.83118    
      9000   298.41805      0.01485129     9.5856348      740.38341     -49.487355      690.89606    
     10000   285.14643      0.01485129    -3.5873753      707.45615     -53.555727      653.90043    
     11000   281.28876      0.01485129     5.8623499      697.88516     -51.455759      646.4294     
     12000   304.55589      0.01485129     7.2084291      755.61156     -50.854641      704.75692    
     13000   320.16542      0.01485129     6.8862429      794.33923     -56.100777      738.23845    
     14000   313.2114       0.01485129     3.6208799      777.08613     -59.245116      717.84101    
     15000   293.6344       0.01485129     12.875802      728.51504     -58.773277      669.74176    
     16000   295.26275      0.01485129     14.167081      732.55503     -57.611628      674.9434     
     17000   292.62993      0.01485129     19.230421      726.02292     -57.449854      668.57307    
     18000   307.44335      0.01485129     4.3039801      762.77544     -55.806199      706.96924    
     19000   299.39385      0.01485129     9.989747       742.80438     -58.271118      684.53326    
     20000   292.70793      0.01485129     5.2899624      726.21644     -62.074667      664.14177    
     21000   297.31809      0.01485129     7.4269738      737.65438     -62.615088      675.03929    
     22000   309.01081      0.01485129     7.3850243      766.66434     -63.943257      702.72109    
     23000   299.63801      0.01485129     9.1195398      743.41016     -63.566483      679.84368    
     24000   292.09894      0.01485129     5.3814796      724.70552     -70.533613      654.17191    
     25000   290.46964      0.01485129     1.6768438      720.66319     -67.671806      652.99138    
     26000   306.09014      0.01485129     10.977375      759.41808     -70.629287      688.78879    
     27000   309.13779      0.01485129     9.5611106      766.97938     -71.729947      695.24944    
     28000   293.86958      0.01485129     9.2349516      729.09852     -73.701872      655.39664    
     29000   299.32087      0.01485129     5.7549628      742.62333     -73.213332      669.41       
     30000   309.62092      0.01485129     7.2811419      768.17803     -74.982076      693.19596    
     31000   300.85386      0.01485129     9.126719       746.42673     -76.113094      670.31364    
     32000   296.05379      0.01485129     6.5323961      734.51761     -75.474748      659.04286    
     33000   296.12048      0.01485129     8.2544347      734.68307     -82.153787      652.52928    
     34000   304.89039      0.01485129     6.4605677      756.44146     -86.768847      669.67262    
     35000   318.77204      0.01485129     8.375896       790.88222     -86.398146      704.48408    
     36000   298.3774       0.01485129     4.5926899      740.28255     -88.111138      652.17141    
     37000   293.05962      0.01485129     7.1686229      727.08898     -90.1909        636.89809    
     38000   289.71348      0.01485129     12.754701      718.78713     -85.451804      633.33532    
     39000   309.28592      0.01485129     7.665828       767.34689     -90.821341      676.52555    
     40000   303.93724      0.01485129     14.382892      754.07666     -91.967674      662.10899    
     41000   281.2418       0.01485129     7.8849494      697.76865     -90.053625      607.71503    
     42000   293.73639      0.01485129     9.1935699      728.76808     -95.964317      632.80376    
     43000   302.70359      0.01485129     6.5361806      751.01594     -92.014648      659.00129    
     44000   293.82921      0.01485129     7.8991506      728.99837     -91.622281      637.37609    
     45000   304.37234      0.01485129     5.064032       755.15616     -91.154049      664.00211    
     46000   292.43526      0.01485129     5.2594486      725.53995     -94.440787      631.09916    
     47000   288.16584      0.01485129     5.7086111      714.9474      -96.551735      618.39566    
     48000   300.94035      0.01485129     13.607343      746.64132     -98.363025      648.27829    
     49000   308.64579      0.01485129     11.449223      765.75872     -99.805437      665.95329    
     50000   303.02082      0.01485129     3.8422773      751.80302     -101.81457      649.98845    
     51000   302.43639      0.01485129     12.387211      750.35302     -100.93004      649.42298    
     52000   293.3523       0.01485129     8.0564297      727.81514     -98.915927      628.89921    
     53000   295.66509      0.01485129     7.5325978      733.55324     -102.60648      630.94676    
     54000   295.02785      0.01485129     6.688664       731.97224     -100.6568       631.31543    
     55000   313.27176      0.01485129     10.504851      777.23587     -105.87752      671.35836    
     56000   301.7191       0.01485129     8.9648894      748.57339     -103.14684      645.42656    
     57000   296.1451       0.01485129     7.6018413      734.74416     -103.08984      631.65432    
     58000   287.11987      0.01485129     9.4475672      712.35231     -104.86197      607.49034    
     59000   303.31494      0.01485129     6.1700598      752.53273     -106.29928      646.23345    
     60000   295.48764      0.01485129     1.0189976      733.11299     -104.23208      628.88091    
     61000   304.86926      0.01485129     9.7471215      756.38904     -101.16729      655.22175    
     62000   291.25475      0.01485129     8.7177627      722.61107     -101.56919      621.04188    
     63000   292.68611      0.01485129     9.0758522      726.1623      -108.2321       617.93019    
     64000   300.12062      0.01485129     1.906959       744.60752     -109.15731      635.45021    
     65000   309.29578      0.01485129     7.7230634      767.37134     -107.92845      659.44289    
     66000   294.01959      0.01485129     11.954021      729.4707      -101.58582      627.88488    
     67000   294.01175      0.01485129     9.567842       729.45126     -94.235078      635.21618    
     68000   308.1856       0.01485129     7.4340945      764.61696     -94.064081      670.55288    
     69000   300.98724      0.01485129     7.329403       746.75765     -101.67715      645.0805     
     70000   301.63207      0.01485129     10.027536      748.35748     -99.33001       649.02747    
     71000   311.31147      0.01485129     7.2065697      772.37233     -94.832742      677.53959    
     72000   293.30619      0.01485129     6.3023244      727.70075     -98.726527      628.97422    
     73000   286.60581      0.01485129     7.9584302      711.07692     -97.392571      613.68435    
     74000   321.53254      0.01485129     10.816288      797.7311      -97.078015      700.65309    
     75000   304.17456      0.01485129     7.8243709      754.66547     -100.19359      654.47188    
     76000   297.27046      0.01485129     7.2661303      737.53621     -99.789009      637.7472     
     77000   288.98112      0.01485129     6.2439392      716.97013     -107.89367      609.07646    
     78000   310.0455       0.01485129     5.5065475      769.23144     -108.92741      660.30403    
     79000   303.65303      0.01485129     14.825977      753.37153     -106.46087      646.91066    
     80000   282.6831       0.01485129     6.9391991      701.34457     -104.49333      596.85124    
     81000   303.62544      0.01485129     5.6925395      753.30309     -100.37949      652.9236     
     82000   318.6419       0.01485129     6.9429837      790.55934     -106.69631      683.86303    
     83000   308.83272      0.01485129     6.8273327      766.2225      -105.60578      660.61671    
     84000   304.89196      0.01485129     8.2994618      756.44536     -102.86203      653.58333    
     85000   311.27247      0.01485129     6.7840407      772.27557     -106.25507      666.0205     
     86000   289.08788      0.01485129     4.8383103      717.23499     -102.14824      615.08675    
     87000   298.73307      0.01485129     7.5508313      741.16498     -99.141028      642.02395    
     88000   291.56744      0.01485129     9.7333298      723.38686     -89.609687      633.77717    
     89000   307.65384      0.01485129     7.9064025      763.29765     -98.001593      665.29606    
     90000   304.98787      0.01485129     6.3992478      756.68331     -96.496195      660.18711    
     91000   304.7251       0.01485129     7.3068048      756.03137     -97.385859      658.64551    
     92000   296.99557      0.01485129     8.1229845      736.85419     -101.06528      635.7889     
     93000   289.7511       0.01485129     10.221507      718.88047     -98.569197      620.31127    
     94000   297.1718       0.01485129     7.0820637      737.29144     -100.47825      636.81319    
     95000   308.43805      0.01485129     6.4755486      765.24329     -101.28198      663.96131    
     96000   291.58068      0.01485129     6.3190911      723.41972     -109.37261      614.04711    
     97000   285.79104      0.01485129     6.2053806      709.05544     -106.78667      602.26877    
     98000   303.70098      0.01485129     8.3786884      753.49049     -114.35662      639.13387    
     99000   297.69476      0.01485129     6.817816       738.58891     -108.60525      629.98366    
    100000   295.62872      0.01485129     7.4471743      733.46301     -108.28514      625.17787    
    101000   309.9763       0.01485129     11.495038      769.05975     -107.33879      661.72097    
    102000   315.14367      0.01485129     7.8279372      781.88013     -111.63593      670.2442     
    103000   299.29863      0.01485129     7.9342519      742.56815     -116.85302      625.71513    
    104000   289.98735      0.01485129     8.3021373      719.4666      -112.12476      607.34184    
    105000   288.74732      0.01485129     6.6220274      716.39007     -115.15657      601.2335     
    106000   304.38467      0.01485129     7.2329127      755.18675     -111.81467      643.37207    
    107000   310.01101      0.01485129     8.5966914      769.14587     -110.25192      658.89395    
    108000   302.03639      0.01485129     6.7968111      749.36062     -113.86964      635.49098    
    109000   300.19068      0.01485129     8.2121984      744.78136     -109.57769      635.20367    
    110000   303.99162      0.01485129     6.5126427      754.21158     -107.6306       646.58098    
    111000   305.50126      0.01485129     4.2009187      757.95705     -113.26578      644.69128    
    112000   309.73545      0.01485129     6.3481309      768.46219     -115.57352      652.88867    
    113000   299.43192      0.01485129     16.153484      742.89885     -110.42247      632.47638    
    114000   290.16906      0.01485129     5.6017836      719.91743     -106.07389      613.84353    
    115000   300.55425      0.01485129     4.9131739      745.68338     -114.92682      630.75656    
    116000   314.91084      0.01485129     17.422448      781.30248     -114.9696       666.33288    
    117000   286.73757      0.01485129     16.009617      711.40382     -113.69609      597.70773    
    118000   299.6517       0.01485129     2.8324754      743.44413     -108.52057      634.92355    
    119000   308.17244      0.01485129     18.233118      764.58433     -108.06701      656.51732    
    120000   301.67751      0.01485129     16.738829      748.47021     -101.63968      646.83054    
    121000   293.49894      0.01485129     8.5144621      728.17896     -105.92088      622.25808    
    122000   296.73236      0.01485129     0.43058115     736.20116     -101.16267      635.0385     
    123000   307.73488      0.01485129    -0.81501216     763.49873     -107.46398      656.03474    
    124000   299.63863      0.01485129     2.8127142      743.41171     -106.42819      636.98352    
    125000   287.31825      0.01485129     19.597634      712.84449     -109.22454      603.61995    
    126000   298.4051       0.01485129     3.0404411      740.35128     -105.07219      635.27909    
    127000   303.20859      0.01485129    -0.34743046     752.26888     -110.49237      641.77651    
    128000   301.20024      0.01485129     16.039186      747.28611     -114.19706      633.08905    
    129000   292.93872      0.01485129     17.109234      726.78904     -115.36839      611.42065    
    130000   297.63408      0.01485129     5.5929344      738.43836     -110.96524      627.47312    
    131000   300.09928      0.01485129     6.20358        744.55458     -108.96604      635.58854    
    132000   299.47777      0.01485129     8.4173046      743.01259     -111.79637      631.21622    
    133000   292.95472      0.01485129     6.5486938      726.82874     -111.32846      615.50028    
    134000   283.88388      0.01485129     5.9292441      704.32372     -104.29174      600.03198    
    135000   315.42269      0.01485129     9.0338693      782.57238     -111.49338      671.079      
    136000   299.47417      0.01485129     5.2720557      743.00368     -109.6309       633.37278    
    137000   295.85143      0.01485129     12.833735      734.01556     -113.46399      620.55157    
    138000   299.50218      0.01485129     6.1530448      743.07317     -108.30912      634.76405    
    139000   297.54265      0.01485129     2.1199156      738.21151     -108.34231      629.8692     
    140000   303.54706      0.01485129     8.0638097      753.10861     -110.13592      642.97269    
    141000   289.90378      0.01485129     8.2443544      719.25927     -110.27232      608.98695    
    142000   303.95876      0.01485129     8.1033898      754.13007     -115.77841      638.35166    
    143000   301.38934      0.01485129     5.2023672      747.75526     -110.75257      637.00269    
    144000   294.69153      0.01485129     10.114917      731.13781     -108.55433      622.58348    
    145000   301.23322      0.01485129     5.8907707      747.36792     -108.86318      638.50475    
    146000   298.80205      0.01485129     5.189147       741.33613     -103.03825      638.29788    
    147000   306.18989      0.01485129     4.4295716      759.66555     -103.81898      655.84657    
    148000   303.96425      0.01485129     7.9732629      754.14367     -108.70071      645.44296    
    149000   303.70561      0.01485129     13.363443      753.50199     -107.45561      646.04638    
    150000   301.91974      0.01485129     8.1332068      749.0712      -103.3782       645.693      
    151000   316.83517      0.01485129     5.8983224      786.07679     -102.08819      683.98861    
    152000   301.65611      0.01485129     4.6358927      748.41713     -99.437491      648.97964    
    153000   308.90101      0.01485129     7.2880362      766.39193     -98.8687        667.52323    
    154000   297.59972      0.01485129     8.221803       738.3531      -95.947841      642.40526    
    155000   311.42412      0.01485129     7.3780646      772.65183     -98.242612      674.40922    
    156000   301.35528      0.01485129     10.25534       747.67076     -100.49323      647.17752    
    157000   303.14223      0.01485129     6.7658328      752.10423     -98.113253      653.99098    
    158000   294.45879      0.01485129     0.2727126      730.56038     -100.8236       629.73678    
    159000   302.88797      0.01485129     12.471628      751.47341     -91.957768      659.51564    
    160000   302.90558      0.01485129     6.5367395      751.5171      -96.895028      654.62207    
    161000   286.31057      0.01485129     1.934988       710.34441     -92.889091      617.45532    
    162000   293.61895      0.01485129     9.4701709      728.47672     -93.685196      634.79152    
    163000   293.01573      0.01485129     10.592101      726.9801      -95.370355      631.60975    
    164000   311.20666      0.01485129     4.9054497      772.11231     -98.47043       673.64188    
    165000   297.37278      0.01485129     4.4782844      737.79007     -96.418248      641.37182    
    166000   279.84973      0.01485129     11.520466      694.31489     -95.788185      598.5267     
    167000   299.11737      0.01485129     11.921563      742.11844     -103.05384      639.06459    
    168000   307.43762      0.01485129     10.151362      762.76121     -100.84986      661.91135    
    169000   301.91003      0.01485129    -1.9419337      749.0471      -97.440103      651.607      
    170000   289.43675      0.01485129     10.521512      718.10057     -92.979841      625.12073    
    171000   293.4048       0.01485129     14.589407      727.94539     -90.035308      637.91008    
    172000   301.25581      0.01485129     11.667952      747.42398     -98.257887      649.16609    
    173000   297.63557      0.01485129    -1.7615763      738.44206     -89.581686      648.86037    
    174000   305.21635      0.01485129     8.0993935      757.25017     -93.180804      664.06936    
    175000   305.87514      0.01485129     8.2602043      758.88465     -97.872023      661.01263    
    176000   306.53743      0.01485129     9.8142476      760.52782     -100.43941      660.08841    
    177000   298.18185      0.01485129     10.266986      739.7974      -95.143117      644.65428    
    178000   280.14192      0.01485129     6.4063713      695.03984     -97.776228      597.26361    
    179000   300.1853       0.01485129     6.2823104      744.768       -101.80454      642.96346    
    180000   328.8705       0.01485129     8.8760947      815.93677     -98.111188      717.82558    
    181000   300.28854      0.01485129     9.6549896      745.02414     -94.153308      650.87084    
    182000   282.25036      0.01485129     5.059213       700.27092     -96.823016      603.44791    
    183000   312.60984      0.01485129     3.2453039      775.59364     -93.69288       681.90076    
    184000   298.36274      0.01485129     10.570659      740.24619     -98.456491      641.78969    
    185000   296.12073      0.01485129     7.9140533      734.6837      -99.532229      635.15147    
    186000   303.29552      0.01485129     3.0439811      752.48453     -107.64719      644.83734    
    187000   311.48427      0.01485129     18.465209      772.80107     -109.74308      663.05799    
    188000   294.16522      0.01485129     11.561515      729.83201     -106.80228      623.02974    
    189000   292.42552      0.01485129     7.8484236      725.51577     -106.11643      619.39933    
    190000   295.30557      0.01485129     6.6921641      732.66127     -105.54644      627.11482    
    191000   297.77754      0.01485129     6.1819821      738.79428     -98.785884      640.0084     
    192000   305.32737      0.01485129     8.0552206      757.52562     -100.80715      656.71847    
    193000   304.0361       0.01485129     7.9187145      754.32194     -102.82444      651.4975     
    194000   308.1706       0.01485129     5.1186736      764.57975     -102.93411      661.64564    
    195000   317.1005       0.01485129     7.4958684      786.73508     -106.39518      680.3399     
    196000   304.16887      0.01485129     9.7229351      754.65135     -101.87444      652.77691    
    197000   307.15842      0.01485129     6.3986056      762.06851     -98.435013      663.6335     
    198000   299.49864      0.01485129     7.9211448      743.06438     -98.342661      644.72172    
    199000   305.67361      0.01485129     9.1189515      758.38465     -94.091424      664.29323    
    200000   309.9491       0.01485129     11.951157      768.99227     -93.772466      675.2198     
    201000   282.55045      0.01485129     2.5563912      701.01545     -95.360185      605.65527    
    202000   308.16263      0.01485129     1.9584447      764.55999     -97.466626      667.09336    
    203000   312.69964      0.01485129     11.763819      775.81643     -96.090282      679.72615    
    204000   294.68169      0.01485129     8.775479       731.1134      -97.380595      633.7328     
    205000   297.74872      0.01485129     6.7913482      738.72278     -96.096643      642.62613    
    206000   311.722        0.01485129     6.9540067      773.39088     -95.794762      677.59612    
    207000   300.23176      0.01485129     7.7123938      744.88327     -97.092693      647.79057    
    208000   295.4883       0.01485129     8.0014049      733.11461     -98.867129      634.24748    
    209000   295.89302      0.01485129     6.1885468      734.11874     -96.608488      637.51026    
    210000   307.937        0.01485129     5.5054297      764.00019     -97.490701      666.50948    
    211000   305.07806      0.01485129     6.5655204      756.90708     -94.50657       662.40051    
    212000   292.97958      0.01485129     10.977209      726.8904      -96.850804      630.0396     
    213000   292.69982      0.01485129     4.8931825      726.19632     -101.45546      624.74085    
    214000   305.21477      0.01485129     7.3845468      757.24626     -98.714303      658.53195    
    215000   317.59645      0.01485129     9.3769255      787.96554     -95.50489       692.46065    
    216000   283.97326      0.01485129     7.1594914      704.54548     -97.522455      607.02303    
    217000   285.65527      0.01485129     6.7324747      708.71861     -93.598042      615.12057    
    218000   302.21861      0.01485129     5.4556439      749.81271     -95.638887      654.17383    
    219000   311.6411       0.01485129     8.8113226      773.19015     -95.426431      677.76372    
    220000   291.4214       0.01485129     12.569949      723.02453     -101.67705      621.34748    
    221000   295.54624      0.01485129     9.7805295      733.25837     -93.237145      640.02122    
    222000   294.11224      0.01485129     7.3105391      729.70057     -86.050785      643.64978    
    223000   313.85539      0.01485129     2.0589979      778.68388     -89.964032      688.71985    
    224000   302.1314       0.01485129     15.838605      749.59634     -90.475595      659.12075    
    225000   293.76226      0.01485129     4.7007706      728.83226     -88.303566      640.5287     
    226000   308.1107       0.01485129     7.4996958      764.43114     -87.130676      677.30046    
    227000   296.29713      0.01485129     12.952007      735.12136     -87.837211      647.28415    
    228000   298.10875      0.01485129     7.0216892      739.61602     -83.379113      656.23691    
    229000   300.59893      0.01485129    -0.98655899     745.79423     -81.86925       663.92498    
    230000   302.70267      0.01485129     7.8669137      751.01367     -79.443446      671.57023    
    231000   300.54181      0.01485129     12.417816      745.65251     -80.692011      664.9605     
    232000   285.47188      0.01485129     10.393581      708.26361     -88.627319      619.63629    
    233000   292.95703      0.01485129     6.4217624      726.83448     -79.638955      647.19552    
    234000   319.00666      0.01485129     9.1085555      791.46433     -81.725054      709.73927    
    235000   302.11533      0.01485129     7.9090984      749.55647     -83.93384       665.62263    
    236000   290.74141      0.01485129     7.9131266      721.33746     -79.939515      641.39794    
    237000   318.24707      0.01485129     8.0391518      789.57976     -79.641972      709.93779    
    238000   303.1925       0.01485129     7.2422016      752.22894     -75.939164      676.28978    
    239000   291.46027      0.01485129     7.8534446      723.12097     -71.42298       651.69799    
    240000   298.56035      0.01485129     9.9999272      740.73645     -74.843358      665.89309    
    241000   307.64436      0.01485129     6.4008244      763.27414     -80.349693      682.92444    
    242000   290.71487      0.01485129     7.2992099      721.2716      -75.757614      645.51399    
    243000   285.59153      0.01485129     6.3776102      708.56045     -77.875945      630.6845     
    244000   305.55348      0.01485129     8.0367119      758.08661     -78.260235      679.82637    
    245000   317.42475      0.01485129     7.8643911      787.53955     -79.61354       707.92601    
    246000   295.02695      0.01485129     9.6027135      731.97        -79.935321      652.03468    
    247000   299.97953      0.01485129     3.7434317      744.25747     -78.160302      666.09717    
    248000   316.92001      0.01485129     8.8285179      786.28728     -79.334503      706.95278    
    249000   299.20679      0.01485129     9.5826604      742.34029     -82.784912      659.55538    
    250000   307.15023      0.01485129     10.199158      762.04818     -85.190895      676.85729    
    251000   285.67485      0.01485129     3.1138394      708.76717     -85.377992      623.38918    
    252000   309.62709      0.01485129     7.3746571      768.19336     -86.472274      681.72108    
    253000   296.36632      0.01485129     8.0181892      735.29302     -80.082902      655.21012    
    254000   300.12731      0.01485129     7.2537045      744.62414     -78.459693      666.16445    
    255000   309.56712      0.01485129     7.1048305      768.04456     -82.565352      685.47921    
    256000   302.49374      0.01485129     10.363255      750.4953      -82.828623      667.66667    
    257000   292.67494      0.01485129     7.6234226      726.1346      -84.023724      642.11087    
    258000   297.27387      0.01485129     7.2806865      737.54467     -77.740742      659.80393    
    259000   315.42613      0.01485129     8.6984364      782.58092     -72.2519        710.32902    
    260000   293.36979      0.01485129     7.8378443      727.85854     -69.916388      657.94215    
    261000   307.84092      0.01485129     7.5371424      763.7618      -69.217866      694.54393    
    262000   297.77915      0.01485129     5.0755413      738.79828     -71.30643       667.49185    
    263000   287.66674      0.01485129     7.6245275      713.70911     -72.003336      641.70578    
    264000   305.33042      0.01485129     7.3856853      757.5332      -77.587721      679.94547    
    265000   322.94631      0.01485129     10.142585      801.23871     -75.717657      725.52105    
    266000   294.70572      0.01485129     7.4183354      731.17301     -76.672235      654.50077    
    267000   292.81859      0.01485129     6.4195189      726.491       -73.429301      653.0617     
    268000   311.07821      0.01485129     7.3964298      771.79362     -76.477203      695.31642    
    269000   301.3963       0.01485129     7.5026186      747.77252     -73.101568      674.67095    
    270000   292.60454      0.01485129     7.671917       725.95992     -76.5138        649.44612    
    271000   296.60854      0.01485129     6.9039209      735.89395     -82.103457      653.7905     
    272000   315.99966      0.01485129     9.369315       784.00386     -81.499655      702.50421    
    273000   309.92581      0.01485129     8.4251592      768.93447     -73.211329      695.72314    
    274000   304.21933      0.01485129     7.7456476      754.77655     -76.306768      678.46978    
    275000   294.60416      0.01485129     4.0246091      730.92103     -80.174039      650.74699    
    276000   293.68338      0.01485129     7.2530067      728.63657     -80.59162       648.04495    
    277000   310.23848      0.01485129     7.9651916      769.71022     -77.213306      692.49692    
    278000   303.89186      0.01485129     5.4354257      753.96408     -79.066297      674.89779    
    279000   290.85194      0.01485129     5.4458584      721.61168     -77.413212      644.19847    
    280000   295.20033      0.01485129     7.9419662      732.40015     -74.950173      657.44997    
    281000   321.26047      0.01485129     9.442077       797.05609     -78.936181      718.11991    
    282000   295.1122       0.01485129     6.4444276      732.18151     -75.013024      657.16849    
    283000   296.61658      0.01485129     9.1727897      735.9139      -69.544234      666.36967    
    284000   309.77689      0.01485129     7.7966887      768.56501     -71.946497      696.61851    
    285000   304.7226       0.01485129     5.5017651      756.02518     -73.152686      682.87249    
    286000   293.306        0.01485129     1.6636412      727.70028     -74.228989      653.47129    
    287000   296.63179      0.01485129     18.152615      735.95166     -74.517467      661.43419    
    288000   315.08854      0.01485129     17.946938      781.74334     -73.533565      708.20978    
    289000   304.83175      0.01485129    -6.5189366      756.29598     -74.128346      682.16764    
    290000   296.0867       0.01485129     9.343505       734.59926     -69.906774      664.69249    
    291000   301.3347       0.01485129     18.199361      747.61971     -70.38237       677.23734    
    292000   308.43379      0.01485129     0.70122568     765.23274     -70.992611      694.24013    
    293000   296.5469       0.01485129     7.4049706      735.74103     -67.519474      668.22156    
    294000   302.47948      0.01485129     13.742967      750.45994     -70.111918      680.34802    
    295000   305.76401      0.01485129     6.7763987      758.60894     -69.580412      689.02853    
    296000   296.22307      0.01485129     2.2225388      734.93761     -67.541833      667.39578    
    297000   291.47082      0.01485129     5.5195299      723.14713     -65.961149      657.18598    
    298000   291.05479      0.01485129     11.512029      722.11495     -63.521111      658.59384    
    299000   316.18242      0.01485129     12.121588      784.45729     -60.30036       724.15693    
    300000   298.21448      0.01485129     3.9769174      739.87834     -58.785058      681.09329    
    301000   293.30629      0.01485129     4.805322       727.701       -65.524143      662.17686    
    302000   295.17233      0.01485129     7.3938507      732.33069     -67.243926      665.08677    
    303000   303.94845      0.01485129     11.792221      754.10448     -72.785694      681.31878    
    304000   302.44025      0.01485129     6.2157699      750.3626      -70.270122      680.09248    
    305000   292.64974      0.01485129     8.2298564      726.07206     -61.323056      664.749      
    306000   295.49828      0.01485129     6.7322168      733.13938     -65.280633      667.85875    
    307000   316.63861      0.01485129     8.6165141      785.58913     -65.483978      720.10515    
    308000   308.85541      0.01485129     8.4415462      766.27877     -65.88519       700.39358    
    309000   298.03802      0.01485129     7.439404       739.44053     -64.513989      674.92655    
    310000   293.29076      0.01485129     6.971024       727.66245     -65.636144      662.02631    
    311000   293.86373      0.01485129     8.0283095      729.08402     -62.632544      666.45148    
    312000   306.56907      0.01485129     6.5726326      760.60632     -62.810807      697.79552    
    313000   309.27722      0.01485129     8.5490097      767.32531     -64.628468      702.69684    
    314000   291.75756      0.01485129     8.3079601      723.85855     -61.692181      662.16637    
    315000   297.39172      0.01485129     9.4704175      737.83706     -62.937256      674.8998     
    316000   313.52463      0.01485129     5.3724953      777.86324     -58.794096      719.06914    
    317000   292.77105      0.01485129     6.7442475      726.37304     -59.268942      667.1041     
    318000   294.21487      0.01485129     8.5685811      729.95521     -60.833875      669.12133    
    319000   304.0543       0.01485129     8.0152417      754.3671      -61.789172      692.57793    
    320000   294.95561      0.01485129     8.2551236      731.79299     -63.036153      668.75684    
    321000   303.26798      0.01485129     7.3522564      752.41621     -56.51122       695.905      
    322000   313.00041      0.01485129     7.9078937      776.56263     -57.456677      719.10596    
    323000   299.84681      0.01485129     9.3677944      743.9282      -59.390321      684.53788    
    324000   275.08745      0.01485129     6.2969547      682.49954     -63.257734      619.2418     
    325000   300.98479      0.01485129     7.2318428      746.75157     -61.950864      684.8007     
    326000   316.6002       0.01485129     9.8650418      785.49382     -65.069567      720.42425    
    327000   303.36166      0.01485129     7.3510638      752.64864     -65.077105      687.57153    
    328000   308.29391      0.01485129     7.0915574      764.8857      -56.557344      708.32836    
    329000   304.0344       0.01485129     7.3394368      754.31773     -56.709796      697.60794    
    330000   293.77452      0.01485129     9.1737123      728.86268     -57.05227       671.81041    
    331000   288.89992      0.01485129     14.373671      716.76865     -57.473776      659.29488    
    332000   290.8532       0.01485129     4.7557782      721.61481     -59.551498      662.06331    
    333000   308.9122       0.01485129     4.8630906      766.41969     -58.212673      708.20702    
    334000   292.42111      0.01485129     21.922032      725.50482     -54.199059      671.30576    
    335000   291.036        0.01485129     8.1859574      722.06833     -55.711018      666.35732    
    336000   303.03508      0.01485129     1.6237225      751.83839     -52.814033      699.02436    
    337000   307.06199      0.01485129     6.8212652      761.82927     -55.621616      706.20765    
    338000   305.61618      0.01485129     13.104624      758.24217     -63.958291      694.28388    
    339000   302.21427      0.01485129     19.597331      749.80193     -61.481897      688.32003    
    340000   299.65822      0.01485129     7.5363459      743.46031     -55.233961      688.22635    
    341000   291.58857      0.01485129     0.39246288     723.43928     -55.424499      668.01478    
    342000   299.44676      0.01485129     0.80865649     742.93567     -54.88144       688.05423    
    343000   295.79818      0.01485129     12.744535      733.88343     -52.390709      681.49272    
    344000   311.46406      0.01485129     7.7530747      772.75092     -58.01185       714.73907    
    345000   319.50192      0.01485129     6.049022       792.69308     -53.465732      739.22735    
    346000   300.82364      0.01485129     7.4320789      746.35175     -58.512212      687.83953    
    347000   293.99872      0.01485129     7.6846858      729.41893     -57.22971       672.18922    
    348000   310.55572      0.01485129     7.9255666      770.4973      -53.347355      717.14995    
    349000   290.95518      0.01485129     8.3136302      721.86782     -50.712657      671.15516    
    350000   289.00329      0.01485129     7.2489264      717.02513     -51.483906      665.54122    
    351000   309.70489      0.01485129     8.1276276      768.38636     -48.45306       719.9333     
    352000   301.54999      0.01485129     7.5388501      748.15383     -42.032901      706.12093    
    353000   292.21874      0.01485129     6.3463211      725.00276     -47.575339      677.42742    
    354000   296.05908      0.01485129     7.9128161      734.53073     -50.141945      684.38879    
    355000   305.86178      0.01485129     10.224096      758.8515      -51.767583      707.08392    
    356000   296.29923      0.01485129     7.3291436      735.12656     -53.537914      681.58865    
    357000   299.4296       0.01485129     7.8872629      742.8931      -57.784228      685.10887    
    358000   288.63048      0.01485129     9.7203695      716.10017     -55.994024      660.10615    
    359000   308.16425      0.01485129     7.2578761      764.564       -47.959848      716.60415    
    360000   294.3066       0.01485129     3.8116287      730.18278     -55.86059       674.32219    
    361000   292.708        0.01485129     12.396886      726.21661     -52.219454      673.99715    
    362000   311.09291      0.01485129     5.1295584      771.83008     -48.508514      723.32156    
    363000   305.12799      0.01485129     6.1633992      757.03094     -49.879741      707.1512     
    364000   291.56202      0.01485129     5.0436184      723.37341     -47.871014      675.50239    
    365000   289.21382      0.01485129     11.998687      717.54745     -44.892377      672.65508    
    366000   303.08886      0.01485129     11.826716      751.97182     -50.341346      701.63048    
    367000   309.39713      0.01485129     7.3754263      767.62282     -48.253735      719.36908    
    368000   306.05258      0.01485129     0.89831816     759.3249      -43.745637      715.57926    
    369000   292.39744      0.01485129     8.3152577      725.4461      -40.85804       684.58806    
    370000   299.97407      0.01485129     8.2063991      744.24394     -41.051822      703.19212    
    371000   295.91536      0.01485129     5.9293414      734.17415     -37.783521      696.39063    
    372000   300.38261      0.01485129     10.751957      745.25754     -43.863778      701.39376    
    373000   304.12768      0.01485129     5.5363262      754.54915     -45.222216      709.32693    
    374000   293.96367      0.01485129     3.9837022      729.33196     -40.442167      688.88979    
    375000   300.40653      0.01485129     9.3754875      745.31689     -41.488896      703.828      
    376000   305.83366      0.01485129     10.427042      758.78174     -41.760116      717.02162    
    377000   300.4704       0.01485129     4.2818289      745.47535     -38.063746      707.4116     
    378000   302.49147      0.01485129     7.3428423      750.48968     -42.932254      707.55743    
    379000   307.54417      0.01485129     11.87141       763.02557     -49.393753      713.63182    
    380000   304.63896      0.01485129     7.7277539      755.81766     -44.274352      711.5433     
    381000   313.97447      0.01485129     10.394028      778.9793      -41.345192      737.63411    
    382000   295.27134      0.01485129     7.3183899      732.57634     -46.321439      686.2549     
    383000   301.28381      0.01485129     6.6704404      747.49345     -45.104096      702.38935    
    384000   298.00993      0.01485129     8.7677407      739.37085     -38.399948      700.9709     
    385000   300.99259      0.01485129     8.8465422      746.77091     -37.637575      709.13333    
    386000   295.23341      0.01485129     3.2875614      732.48223     -39.680114      692.80211    
    387000   310.07067      0.01485129     5.0969587      769.29388     -37.827645      731.46624    
    388000   313.93499      0.01485129     9.70512        778.88137     -40.586512      738.29485    
    389000   299.58815      0.01485129     8.549237       743.28645     -39.480321      703.80613    
    390000   287.16929      0.01485129     11.356922      712.47493     -40.148632      672.3263     
    391000   297.9569       0.01485129     6.8281909      739.23929     -37.21828       702.02101    
    392000   319.82139      0.01485129     4.8098065      793.48569     -36.012803      757.47288    
    393000   283.75603      0.01485129     10.297101      704.00653     -33.981089      670.02544    
    394000   292.05878      0.01485129     4.6011745      724.60589     -36.719369      687.88652    
    395000   313.23992      0.01485129     3.934913       777.15687     -37.725601      739.43127    
    396000   305.42908      0.01485129     6.7426114      757.77796     -34.390781      723.38718    
    397000   305.15514      0.01485129     14.462609      757.09832     -33.87971       723.21861    
    398000   286.00215      0.01485129     11.117667      709.57922     -36.926705      672.65252    
    399000   296.65975      0.01485129     3.2936608      736.02101     -34.630955      701.39005    
    400000   311.02563      0.01485129     7.5120841      771.66316     -32.572912      739.09024    
    401000   293.43208      0.01485129     10.607967      728.01309     -32.390373      695.62271    
    402000   288.80423      0.01485129     6.6930537      716.53124     -34.252531      682.27871    
    403000   310.69205      0.01485129     4.67538        770.83555     -39.627663      731.20788    
    404000   310.77441      0.01485129     14.920196      771.03989     -35.889696      735.15019    
    405000   299.08111      0.01485129     8.5692946      742.02847     -39.971357      702.05712    
    406000   296.0827       0.01485129     1.1632537      734.58933     -37.5323        697.05703    
    407000   306.85898      0.01485129     12.352233      761.32558     -32.410588      728.915      
    408000   309.8216       0.01485129     21.478362      768.67592     -37.840338      730.83558    
    409000   289.27228      0.01485129     13.449203      717.69249     -41.164366      676.52813    
    410000   293.41676      0.01485129     5.8586223      727.97507     -41.461205      686.51387    
    411000   282.87512      0.01485129     6.8286964      701.82097     -41.926905      659.89407    
    412000   308.41518      0.01485129     8.3131605      765.18656     -40.197955      724.9886     
    413000   296.81303      0.01485129     14.003323      736.40131     -40.299361      696.10194    
    414000   290.60586      0.01485129     5.2540899      721.00115     -38.036553      682.9646     
    415000   302.91352      0.01485129    -6.2402249      751.5368      -37.583122      713.95368    
    416000   295.60535      0.01485129     4.1960244      733.40501     -42.138041      691.26697    
    417000   324.83785      0.01485129     10.159536      805.93167     -41.304108      764.62756    
    418000   290.74426      0.01485129     10.615963      721.34453     -33.17558       688.16895    
    419000   295.08986      0.01485129     6.8341003      732.12608     -34.985361      697.14072    
    420000   304.25174      0.01485129     8.4451945      754.85695     -40.879691      713.97726    
    421000   303.66596      0.01485129     7.6345609      753.40361     -38.865431      714.53818    
    422000   291.5769       0.01485129     6.9014244      723.41033     -33.958194      689.45214    
    423000   304.03854      0.01485129     9.0782032      754.32799     -40.342006      713.98599    
    424000   289.93799      0.01485129     6.1548688      719.34415     -41.855233      677.48892    
    425000   299.86037      0.01485129     7.0265571      743.96184     -41.196298      702.76554    
    426000   307.12142      0.01485129     5.724885       761.97671     -41.712859      720.26385    
    427000   307.81683      0.01485129     8.4452891      763.70205     -45.619988      718.08206    
    428000   294.75255      0.01485129     8.9487591      731.28921     -43.328365      687.96085    
    429000   293.48188      0.01485129     4.8019212      728.13663     -43.698495      684.43814    
    430000   317.74334      0.01485129     8.2258695      788.32999     -44.234761      744.09523    
    431000   302.9628       0.01485129     9.3321539      751.65907     -40.352405      711.30666    
    432000   278.59321      0.01485129     8.6417513      691.19744     -36.783398      654.41404    
    433000   301.99848      0.01485129     7.3135634      749.26656     -46.924663      702.34189    
    434000   307.93409      0.01485129     7.9979466      763.99298     -48.374684      715.61829    
    435000   298.77977      0.01485129     11.273889      741.28085     -53.385168      687.89568    
    436000   292.06094      0.01485129     8.300356       724.61125     -42.093505      682.51775    
    437000   301.2854       0.01485129     2.8685671      747.49739     -46.565207      700.93219    
    438000   311.51465      0.01485129     8.1409649      772.87642     -45.892749      726.98367    
    439000   293.14939      0.01485129     11.594622      727.31171     -43.28996       684.02174    
    440000   295.2463       0.01485129     5.4067453      732.5142      -42.054175      690.46003    
    441000   313.2714       0.01485129     8.4289244      777.23497     -44.913796      732.32117    
    442000   291.4398       0.01485129     12.836801      723.07017     -40.811915      682.25826    
    443000   288.08999      0.01485129     6.1407532      714.7592      -38.96086       675.79834    
    444000   314.24925      0.01485129     5.1242867      779.66106     -39.988914      739.67214    
    445000   304.34507      0.01485129     8.5496473      755.08852     -41.154153      713.93437    
    446000   300.7879       0.01485129     11.76125       746.26307     -45.642338      700.62073    
    447000   302.78905      0.01485129     9.9611262      751.22799     -40.402193      710.82579    
    448000   304.6958       0.01485129     7.3857084      755.95867     -42.021345      713.93732    
    449000   313.35373      0.01485129     8.2416721      777.43925     -40.254332      737.18491    
    450000   293.69961      0.01485129     10.54076       728.67684     -42.442102      686.23473    
    451000   294.65387      0.01485129     8.6215283      731.04438     -39.820061      691.22432    
    452000   290.36995      0.01485129     6.3569813      720.41584     -45.519734      674.8961     
    453000   294.04218      0.01485129     4.8936519      729.52675     -35.276373      694.25037    
    454000   307.72874      0.01485129     8.4494475      763.48348     -37.018956      726.46452    
    455000   304.91365      0.01485129     14.341324      756.49918     -41.36424       715.13493    
    456000   295.15153      0.01485129     9.7283684      732.27908     -41.446816      690.83226    
    457000   289.04555      0.01485129     1.686657       717.12997     -41.773736      675.35624    
    458000   310.2908       0.01485129     7.1287677      769.84004     -42.857468      726.98257    
    459000   291.32694      0.01485129     14.475685      722.79016     -41.632906      681.15725    
    460000   299.58418      0.01485129     6.5991096      743.27661     -37.942809      705.3338     
    461000   305.97856      0.01485129     6.3273644      759.14124     -39.268404      719.87283    
    462000   297.05191      0.01485129     9.580384       736.99397     -37.542034      699.45194    
    463000   297.56406      0.01485129     7.4511729      738.26463     -31.019368      707.24526    
    464000   298.18264      0.01485129     7.5976676      739.79934     -35.008309      704.79103    
    465000   302.90542      0.01485129     7.2459573      751.51671     -35.532641      715.98407    
    466000   304.05917      0.01485129     8.8147422      754.37917     -34.838065      719.54111    
    467000   287.35948      0.01485129     11.74077       712.9468      -37.448664      675.49813    
    468000   297.55446      0.01485129     5.9450462      738.24082     -37.274846      700.96598    
    469000   324.25727      0.01485129     9.8102225      804.49123     -30.847713      773.64351    
    470000   288.93657      0.01485129     10.100534      716.8596      -29.952901      686.90669    
    471000   290.56185      0.01485129     7.5145069      720.89195     -31.537408      689.35454    
    472000   310.72812      0.01485129     9.1220536      770.92504     -28.623829      742.30121    
    473000   293.46004      0.01485129     7.4948668      728.08245     -29.897871      698.18458    
    474000   306.6879       0.01485129     7.1250911      760.90113     -27.442514      733.45861    
    475000   306.44405      0.01485129     9.1872507      760.29613     -27.589086      732.70704    
    476000   298.49212      0.01485129     7.7848389      740.56717     -30.116349      710.45082    
    477000   290.34324      0.01485129     6.4045616      720.34959     -29.05006       691.29953    
    478000   304.33335      0.01485129     8.5554031      755.05943     -23.835826      731.2236     
    479000   299.20904      0.01485129     8.8040552      742.34588     -29.969243      712.37663    
    480000   295.22313      0.01485129     7.2221295      732.45672     -29.234422      703.22229    
    481000   303.72019      0.01485129     9.8315696      753.53817     -26.711368      726.8268     
    482000   295.10883      0.01485129     8.4341681      732.17314     -23.419276      708.75386    
    483000   307.0467       0.01485129     6.2133499      761.79132     -23.13785       738.65347    
    484000   295.1127       0.01485129     6.6164727      732.18273     -27.914575      704.26816    
    485000   300.0526       0.01485129     9.472699       744.43878     -25.530849      718.90793    
    486000   306.15405      0.01485129     10.092964      759.57663     -30.32017       729.25646    
    487000   303.48338      0.01485129     7.1687127      752.95063     -33.344319      719.60631    
    488000   294.63158      0.01485129     2.9827046      730.98906     -33.28187       697.70719    
    489000   290.57325      0.01485129     4.0126796      720.92025     -32.243771      688.67648    
    490000   290.33535      0.01485129     10.114502      720.33        -32.313936      688.01606    
    491000   313.0557       0.01485129     7.6083603      776.69983     -32.748666      743.95117    
    492000   308.31631      0.01485129     1.5771277      764.94128     -30.518259      734.42302    
    493000   296.52336      0.01485129     5.1740061      735.68263     -30.68617       704.99646    
    494000   296.2188       0.01485129     10.856789      734.92701     -25.381471      709.54554    
    495000   310.5018       0.01485129     7.5496019      770.36352     -27.992947      742.37058    
    496000   292.54854      0.01485129     2.8831865      725.821       -32.703212      693.11778    
    497000   296.35705      0.01485129     18.66056       735.27        -27.780133      707.48987    
    498000   300.37448      0.01485129     17.910106      745.23736     -31.249965      713.98739    
    499000   300.2145       0.01485129     7.0329322      744.84045     -30.967954      713.8725     
    500000   308.32749      0.01485129     6.8784527      764.96901     -25.086652      739.88236    
    501000   296.20071      0.01485129     7.984085       734.88213     -20.472084      714.41004    
    502000   298.45837      0.01485129     9.1574907      740.48345     -21.985927      718.49753    
    503000   293.42551      0.01485129    -0.50587029     727.99678     -21.351908      706.64488    
    504000   300.38664      0.01485129     12.223719      745.26753     -27.36881       717.89872    
    505000   317.42233      0.01485129     0.73500035     787.53355     -26.465551      761.068      
    506000   290.96059      0.01485129     7.2566623      721.88123     -18.196404      703.68483    
    507000   295.23578      0.01485129     13.042841      732.48811     -23.227749      709.26036    
    508000   312.58003      0.01485129     12.67031       775.51967     -26.293107      749.22656    
    509000   297.50048      0.01485129     6.557288       738.10688     -31.758442      706.34844    
    510000   291.24003      0.01485129     7.1540734      722.57454     -29.904996      692.66954    
    511000   316.93837      0.01485129     19.144141      786.33283     -28.663797      757.66903    
    512000   304.69248      0.01485129     1.2512408      755.95043     -30.158694      725.79174    
    513000   297.23544      0.01485129     1.3480078      737.44931     -27.850434      709.59888    
    514000   294.7025       0.01485129     14.039398      731.16504     -26.897891      704.26715    
    515000   302.98464      0.01485129     16.21453       751.71325     -28.203787      723.50946    
    516000   307.66935      0.01485129     18.899399      763.33614     -27.826792      735.50935    
    517000   292.4602       0.01485129     6.9947524      725.60183     -25.429778      700.17205    
    518000   303.43505      0.01485129     5.6748092      752.83073     -24.761713      728.06901    
    519000   299.78412      0.01485129     7.4715994      743.77267     -23.682342      720.09033    
    520000   301.84772      0.01485129     9.4234581      748.8925      -23.640794      725.25171    
    521000   305.41644      0.01485129     14.31519       757.7466      -25.272151      732.47445    
    522000   296.08289      0.01485129     7.6311061      734.58981     -24.925851      709.66396    
    523000   297.10298      0.01485129     4.8561034      737.12069     -26.918019      710.20267    
    524000   296.65069      0.01485129     16.484556      735.99855     -25.32022       710.67833    
    525000   313.8321       0.01485129     13.365121      778.62609     -28.524352      750.10174    
    526000   297.10993      0.01485129     6.2314282      737.13792     -28.93291       708.20501    
    527000   295.14258      0.01485129     7.4364726      732.25688     -29.013044      703.24383    
    528000   298.04322      0.01485129     8.0815251      739.45344     -26.853675      712.59977    
    529000   305.26878      0.01485129     8.6772658      757.38025     -30.175187      727.20506    
    530000   298.61033      0.01485129     8.5485577      740.86045     -29.296172      711.56428    
    531000   306.56319      0.01485129     6.4387385      760.59171     -28.298795      732.29292    
    532000   300.47456      0.01485129     8.0875455      745.48567     -32.735462      712.75021    
    533000   291.59314      0.01485129     5.7120485      723.45062     -32.7213        690.72932    
    534000   301.00319      0.01485129     10.244515      746.79721     -29.636737      717.16047    
    535000   303.75801      0.01485129     11.57727       753.63199     -30.150256      723.48174    
    536000   311.4551       0.01485129     9.4408308      772.72868     -31.225137      741.50354    
    537000   297.92027      0.01485129     6.124907       739.1484      -33.464268      705.68413    
    538000   293.5456       0.01485129     7.8842741      728.29473     -31.757348      696.53738    
    539000   296.35295      0.01485129     7.320225       735.25983     -33.207453      702.05238    
    540000   306.79882      0.01485129     8.1664167      761.17633     -31.331284      729.84504    
    541000   291.84378      0.01485129     8.8636719      724.07247     -32.611161      691.4613     
    542000   302.54021      0.01485129     11.514568      750.61059     -31.071458      719.53913    
    543000   303.50576      0.01485129     5.1934974      753.00616     -27.475578      725.53058    
    544000   299.04107      0.01485129     5.9939116      741.92915     -30.990884      710.93826    
    545000   302.3205       0.01485129     4.3933682      750.0655      -32.805142      717.26035    
    546000   302.58571      0.01485129     13.153141      750.72348     -31.633943      719.08954    
    547000   321.10958      0.01485129     3.2383073      796.68172     -27.95791       768.72381    
    548000   290.56719      0.01485129    -4.5165016      720.90521     -28.083613      692.8216     
    549000   298.6196       0.01485129     14.161846      740.88346     -27.888995      712.99447    
    550000   297.40197      0.01485129     20.964119      737.86249     -27.109184      710.7533     
    551000   297.0219       0.01485129     20.061098      736.91953     -26.414433      710.50509    
    552000   313.11475      0.01485129     8.7631069      776.84633     -29.127661      747.71867    
    553000   306.94923      0.01485129     3.7340897      761.5495      -21.823229      739.72627    
    554000   287.62863      0.01485129     7.631909       713.61456     -27.769878      685.84468    
    555000   297.58631      0.01485129     15.857086      738.31983     -28.515026      709.8048     
    556000   315.21886      0.01485129     10.853334      782.06669     -24.968747      757.09794    
    557000   299.01274      0.01485129    -10.150258      741.85884     -23.471095      718.38774    
    558000   291.54221      0.01485129     3.1075132      723.32425     -25.848946      697.4753     
    559000   304.58713      0.01485129     11.058822      755.68906     -28.786794      726.90227    
    560000   300.1401       0.01485129     9.5141328      744.65587     -27.287803      717.36807    
    561000   304.30708      0.01485129    -3.567202       754.99424     -28.006501      726.98774    
    562000   295.58514      0.01485129     2.0860086      733.35489     -35.009461      698.34543    
    563000   309.02498      0.01485129     14.880464      766.69948     -31.120129      735.57935    
    564000   304.84663      0.01485129     0.66016318     756.3329      -28.012291      728.3206     
    565000   286.51299      0.01485129     3.7456155      710.84663     -30.648803      680.19783    
    566000   303.70661      0.01485129     12.896792      753.50446     -28.369369      725.13509    
    567000   307.76198      0.01485129     3.3130449      763.56595     -28.800836      734.76511    
    568000   293.6399       0.01485129     12.503111      728.52869     -28.058602      700.47009    
    569000   304.38576      0.01485129     8.8799873      755.18947     -27.25601       727.93346    
    570000   301.96328      0.01485129     5.8307556      749.17923     -30.496062      718.68316    
    571000   304.3903       0.01485129     10.274042      755.20073     -24.506893      730.69384    
    572000   300.70852      0.01485129     10.326303      746.06612     -24.769176      721.29695    
    573000   307.18793      0.01485129     7.780451       762.14173     -22.275408      739.86633    
    574000   316.89504      0.01485129     7.2936486      786.22533     -24.238728      761.9866     
    575000   316.25417      0.01485129     1.5784415      784.63532     -26.538822      758.0965     
    576000   296.37569      0.01485129     7.5797588      735.31626     -23.914755      711.40151    
    577000   302.37779      0.01485129     6.3467191      750.20763     -28.883078      721.32456    
    578000   312.94797      0.01485129     9.0473851      776.43255     -22.430283      754.00227    
    579000   303.57599      0.01485129     9.6204222      753.18039     -24.31081       728.86958    
    580000   297.5948       0.01485129     7.6289179      738.3409      -25.019545      713.32135    
    581000   288.65228      0.01485129     7.5745333      716.15426     -26.374338      689.77992    
    582000   298.62975      0.01485129     7.9748484      740.90864     -26.323086      714.58556    
    583000   309.10231      0.01485129     7.4183706      766.89136     -24.47559       742.41577    
    584000   309.41925      0.01485129     8.7450902      767.6777      -21.87475       745.80295    
    585000   301.42655      0.01485129     6.8826162      747.84757     -23.742873      724.1047     
    586000   285.29284      0.01485129     7.3366998      707.81939     -21.720582      686.09881    
    587000   303.79421      0.01485129     9.2299829      753.72181     -20.509258      733.21256    
    588000   312.03874      0.01485129     8.3863249      774.17672     -22.23402       751.9427     
    589000   296.89524      0.01485129     6.1222549      736.60526     -24.517624      712.08764    
    590000   293.94772      0.01485129     7.5154549      729.29239     -27.709394      701.583      
    591000   289.45889      0.01485129     7.9120046      718.15547     -27.158447      690.99703    
    592000   292.09536      0.01485129     6.8197754      724.69664     -23.872754      700.82389    
    593000   296.71678      0.01485129     8.3856254      736.16251     -24.239285      711.92323    
    594000   289.54802      0.01485129     7.3003507      718.37661     -26.32962       692.04699    
    595000   282.32323      0.01485129     7.6673845      700.45173     -23.117392      677.33434    
    596000   298.0711       0.01485129     5.4557715      739.52261     -25.266843      714.25577    
    597000   310.59968      0.01485129     8.9711453      770.60638     -24.901372      745.70501    
    598000   301.56883      0.01485129     8.7196249      748.20059     -24.649359      723.55123    
    599000   290.43866      0.01485129     8.218019       720.58632     -27.021948      693.56437    
    600000   301.10876      0.01485129     7.7351792      747.05913     -28.868518      718.19061    
    601000   320.11068      0.01485129     8.3028086      794.20341     -27.073308      767.1301     
    602000   302.37705      0.01485129     8.6082539      750.20579     -27.692145      722.51364    
    603000   310.0051       0.01485129     8.2721549      769.13121     -33.366369      735.76484    
    604000   287.24726      0.01485129     6.9197937      712.66836     -31.201627      681.46674    
    605000   297.02335      0.01485129     7.4100167      736.92313     -29.747314      707.17581    
    606000   329.65452      0.01485129     9.6567872      817.88195     -31.237949      786.644      
    607000   288.93991      0.01485129     7.1120106      716.86788     -27.753006      689.11487    
    608000   293.43206      0.01485129     7.6489948      728.01302     -28.571291      699.44173    
    609000   304.91432      0.01485129     6.9680626      756.50083     -31.603784      724.89705    
    610000   301.66377      0.01485129     8.3699757      748.43613     -29.063998      719.37213    
    611000   303.13618      0.01485129     8.9669576      752.08921     -31.437533      720.65168    
    612000   304.19027      0.01485129     7.7415176      754.70443     -34.582765      720.12167    
    613000   296.13272      0.01485129     8.7438656      734.71345     -30.814577      703.89887    
    614000   298.95805      0.01485129     5.6256769      741.72316     -32.363338      709.35982    
    615000   298.73575      0.01485129     8.31955        741.17162     -28.016599      713.15502    
    616000   301.87217      0.01485129     9.3950388      748.95318     -31.287374      717.66581    
    617000   302.10821      0.01485129     7.0149709      749.53879     -29.762054      719.77674    
    618000   313.00736      0.01485129     7.456732       776.57988     -27.808554      748.77133    
    619000   307.9326       0.01485129     9.8720887      763.98927     -27.345634      736.64364    
    620000   288.21737      0.01485129     10.151856      715.07524     -30.300934      684.77431    
    621000   304.8379       0.01485129     4.8743393      756.31123     -29.702844      726.60838    
    622000   301.83173      0.01485129     9.0914351      748.85285     -30.951558      717.90129    
    623000   296.5094       0.01485129     16.776341      735.648       -26.713935      708.93407    
    624000   293.41142      0.01485129     9.8974459      727.96182     -27.417151      700.54467    
    625000   303.23606      0.01485129     5.1633459      752.33702     -26.668759      725.66826    
    626000   301.53881      0.01485129     8.1792597      748.12609     -28.266803      719.85929    
    627000   291.90102      0.01485129     15.040715      724.21447     -25.308488      698.90598    
    628000   306.3048       0.01485129     3.7535204      759.95064     -30.14721       729.80343    
    629000   311.94277      0.01485129     11.166622      773.93862     -25.961025      747.97759    
    630000   290.58545      0.01485129     12.032341      720.95051     -28.016062      692.93445    
    631000   294.42947      0.01485129     4.2560698      730.48762     -27.125221      703.3624     
    632000   297.44481      0.01485129    -1.3251409      737.96879     -26.767588      711.2012     
    633000   297.92882      0.01485129     3.954391       739.16963     -30.475967      708.69366    
    634000   309.52782      0.01485129     6.2404559      767.94705     -32.101118      735.84593    
    635000   306.96414      0.01485129    -2.8430348      761.58651     -30.643048      730.94346    
    636000   312.0011       0.01485129     0.51806967     774.08333     -30.220102      743.86322    
    637000   292.26957      0.01485129     13.947888      725.12886     -23.763764      701.36509    
    638000   282.01486      0.01485129     9.679847       699.68665     -25.878837      673.80782    
    639000   305.90888      0.01485129     3.2641478      758.96837     -29.990205      728.97816    
    640000   324.69982      0.01485129     15.511327      805.58919     -29.358314      776.23088    
    641000   282.83235      0.01485129     20.68906       701.71485     -29.946762      671.76808    
    642000   296.87424      0.01485129     1.1969906      736.55317     -30.368993      706.18418    
    643000   299.4609       0.01485129     5.2453877      742.97075     -32.5818        710.38895    
    644000   312.85524      0.01485129     8.4398095      776.20247     -29.375167      746.82731    
    645000   294.68661      0.01485129     10.198175      731.12561     -29.690785      701.43483    
    646000   303.90498      0.01485129     17.354502      753.99663     -29.739206      724.25742    
    647000   302.32363      0.01485129     5.7700068      750.07326     -30.15635       719.91691    
    648000   290.66582      0.01485129    -5.9235686      721.14991     -26.220236      694.92967    
    649000   299.3569       0.01485129     6.9832038      742.71273     -23.513211      719.19952    
    650000   298.36508      0.01485129     7.3685592      740.252       -23.420035      716.83196    
    651000   317.61385      0.01485129     10.224847      788.0087      -21.604045      766.40466    
    652000   304.54834      0.01485129     7.9446767      755.59284     -22.633732      732.95911    
    653000   300.61302      0.01485129     5.791765       745.82918     -20.173342      725.65584    
    654000   297.37347      0.01485129     8.3023083      737.79177     -22.331431      715.46034    
    655000   293.15107      0.01485129     7.5725709      727.31589     -23.145305      704.17058    
    656000   297.55354      0.01485129     8.3698409      738.23853     -22.747933      715.4906     
    657000   300.96569      0.01485129     8.4775989      746.70417     -26.922262      719.78191    
    658000   290.56683      0.01485129     7.5382445      720.90432     -26.085344      694.81898    
    659000   297.63258      0.01485129     7.6208562      738.43463     -29.333221      709.10141    
    660000   290.68247      0.01485129     8.7581537      721.19121     -27.004458      694.18675    
    661000   306.60539      0.01485129     8.9273925      760.69642     -25.610426      735.08599    
    662000   288.88036      0.01485129     8.1134015      716.72014     -23.039986      693.68015    
    663000   304.11896      0.01485129     7.7952617      754.52753     -22.404965      732.12256    
    664000   300.82678      0.01485129     8.1513541      746.35953     -20.640097      725.71943    
    665000   297.35433      0.01485129     8.0217515      737.74429     -26.52195       711.22234    
    666000   306.63683      0.01485129     7.5804962      760.77443     -25.128423      735.646      
    667000   308.02107      0.01485129     8.0219809      764.20877     -24.821203      739.38756    
    668000   307.96623      0.01485129     10.279371      764.07269     -25.871897      738.2008     
    669000   302.05862      0.01485129     7.0961842      749.41577     -28.27045       721.14532    
    670000   288.96686      0.01485129     5.7039068      716.93474     -22.067884      694.86686    
    671000   301.27313      0.01485129     9.9761586      747.46694     -25.40934       722.0576     
    672000   320.70605      0.01485129     7.2865526      795.68056     -23.134045      772.54651    
    673000   303.17205      0.01485129     5.4436125      752.17821     -21.727539      730.45067    
    674000   277.67862      0.01485129     6.9389315      688.92831     -20.952662      667.97565    
    675000   297.69243      0.01485129     7.9561135      738.58314     -23.547545      715.03559    
    676000   312.59633      0.01485129     9.6610593      775.56011     -28.361188      747.19893    
    677000   300.54332      0.01485129     7.658891       745.65625     -27.195083      718.46117    
    678000   297.98757      0.01485129     7.7498929      739.31537     -27.647398      711.66797    
    679000   296.99358      0.01485129     8.7392753      736.84926     -29.271228      707.57803    
    680000   302.51503      0.01485129     9.231146       750.54813     -22.633067      727.91507    
    681000   311.49165      0.01485129     8.5388088      772.81938     -28.201319      744.61806    
    682000   302.71932      0.01485129     5.3612271      751.05498     -26.474891      724.58009    
    683000   290.84988      0.01485129     10.801046      721.60657     -28.640846      692.96572    
    684000   308.00533      0.01485129     14.55631       764.16971     -26.377807      737.79191    
    685000   309.89743      0.01485129     2.2089534      768.86406     -27.103356      741.76071    
    686000   298.60682      0.01485129     4.8935816      740.85175     -25.901385      714.95036    
    687000   296.61631      0.01485129     9.8630975      735.91323     -26.799065      709.11417    
    688000   301.89062      0.01485129     13.549302      748.99896     -29.806009      719.19295    
    689000   313.26288      0.01485129     3.3433093      777.21383     -28.95152       748.26231    
    690000   289.3842       0.01485129    -2.9575702      717.97018     -20.815171      697.15501    
    691000   285.95172      0.01485129     8.0713407      709.4541      -20.342858      689.11124    
    692000   303.44237      0.01485129     10.374779      752.84889     -21.495566      731.35332    
    693000   310.40262      0.01485129     10.944198      770.11745     -25.195525      744.92192    
    694000   299.94955      0.01485129    -14.57972       744.1831      -30.966622      713.21648    
    695000   293.28956      0.01485129     9.2889842      727.65948     -30.313509      697.34597    
    696000   307.35845      0.01485129     30.71648       762.56478     -28.899816      733.66496    
    697000   301.12785      0.01485129     4.4098882      747.1065      -27.641751      719.46475    
    698000   287.03538      0.01485129    -3.5276391      712.14268     -24.331117      687.81156    
    699000   296.82411      0.01485129     12.877202      736.4288      -23.903777      712.52502    
    700000   324.76269      0.01485129     13.050602      805.74517     -24.73901       781.00616    
    701000   300.07514      0.01485129     5.2446874      744.49468     -31.630271      712.86441    
    702000   293.31141      0.01485129     5.8367055      727.71368     -31.958201      695.75548    
    703000   302.54637      0.01485129     13.136916      750.62588     -26.376195      724.24968    
    704000   315.28843      0.01485129     13.168254      782.23928     -25.22754       757.01174    
    705000   298.40323      0.01485129     6.8814087      740.34663     -26.780048      713.56658    
    706000   291.25517      0.01485129     5.6134652      722.6121      -25.601463      697.01064    
    707000   318.72678      0.01485129     21.673615      790.76993     -23.634343      767.13559    
    708000   312.28863      0.01485129     5.1144872      774.79669     -25.842081      748.95461    
    709000   291.03136      0.01485129     5.4081561      722.05683     -25.006993      697.04983    
    710000   283.45425      0.01485129     10.470633      703.2578      -26.356695      676.9011     
    711000   308.1102       0.01485129     8.1559939      764.4299      -23.997597      740.43231    
    712000   293.69758      0.01485129     6.9730438      728.67179     -26.832199      701.83959    
    713000   287.87422      0.01485129     8.2261295      714.22387     -29.130108      685.09376    
    714000   315.56483      0.01485129     9.0954425      782.92505     -28.884217      754.04083    
    715000   313.12828      0.01485129     8.8035515      776.87988     -23.441678      753.4382     
    716000   291.88642      0.01485129     7.1316234      724.17824     -24.844774      699.33347    
    717000   293.55884      0.01485129     8.0194648      728.32758     -22.929697      705.39788    
    718000   313.79488      0.01485129     8.4120634      778.53375     -22.461054      756.0727     
    719000   303.2871       0.01485129     8.4620377      752.46366     -23.209099      729.25456    
    720000   292.20262      0.01485129     7.4822337      724.96276     -28.245712      696.71705    
    721000   288.97293      0.01485129     8.2914926      716.9498      -25.95655       690.99325    
    722000   309.71713      0.01485129     9.0056204      768.41674     -25.765638      742.6511     
    723000   304.4017       0.01485129     6.5354545      755.22901     -26.857625      728.37138    
    724000   287.19225      0.01485129     8.799941       712.53188     -28.267459      684.26442    
[...]
   3823000   317.29482      0.01485129     4.4346315      787.2172      -20.916235      766.30096    
   3824000   303.13467      0.01485129     8.2606817      752.08547     -28.97533       723.11014    
   3825000   290.48435      0.01485129     6.8168334      720.69967     -29.997045      690.70263    
   3826000   297.93044      0.01485129     7.367672       739.17363     -25.47997       713.69366    
   3827000   293.57873      0.01485129     7.7036514      728.37692     -30.93217       697.44475    
   3828000   316.45141      0.01485129     9.6577387      785.12466     -30.68961       754.43505    
   3829000   316.74548      0.01485129     8.1756267      785.85428     -30.866763      754.98751    
   3830000   293.09661      0.01485129     7.7302012      727.18076     -30.844443      696.33632    
   3831000   293.76899      0.01485129     8.1036593      728.84895     -33.473408      695.37555    
   3832000   313.89624      0.01485129     6.8693648      778.78522     -25.594834      753.19038    
   3833000   310.03823      0.01485129     8.4382303      769.2134      -26.845717      742.36769    
   3834000   295.46669      0.01485129     9.6505813      733.061       -26.342226      706.71878    
   3835000   292.83739      0.01485129     7.8121056      726.53763     -19.548429      706.9892     
   3836000   306.83769      0.01485129     7.1711529      761.27278     -20.681653      740.59113    
   3837000   321.98086      0.01485129     8.9349352      798.84338     -22.63143       776.21195    
   3838000   296.93344      0.01485129     8.5082731      736.70005     -21.88828       714.81177    
   3839000   288.81735      0.01485129     7.6739176      716.56381     -21.472485      695.09133    
   3840000   298.44599      0.01485129     1.7723433      740.45273     -20.990074      719.46266    
   3841000   314.61972      0.01485129     5.2240459      780.5802      -27.345124      753.23508    
   3842000   305.63818      0.01485129     13.313832      758.29675     -25.523159      732.77359    
   3843000   287.25398      0.01485129     6.4928403      712.68504     -23.580342      689.1047     
   3844000   319.53002      0.01485129    -3.0130781      792.76279     -26.01196       766.75083    
   3845000   302.50721      0.01485129     10.006278      750.52872     -23.556138      726.97258    
   3846000   300.61298      0.01485129     15.574825      745.82909     -23.655183      722.1739     
   3847000   291.40705      0.01485129     5.1829484      722.98892     -29.584256      693.40466    
   3848000   313.28472      0.01485129     4.0508631      777.26801     -26.194123      751.07389    
   3849000   320.22202      0.01485129     11.633765      794.47966     -25.906095      768.57356    
   3850000   302.0699       0.01485129     8.6041544      749.44375     -26.07154       723.37221    
   3851000   294.3929       0.01485129     6.4662679      730.3969      -28.756494      701.64041    
   3852000   309.02205      0.01485129     6.5206874      766.69222     -29.550476      737.14174    
   3853000   308.87237      0.01485129     6.1374788      766.32085     -28.01438       738.30647    
   3854000   295.94126      0.01485129     14.143334      734.23843     -27.12741       707.11102    
   3855000   302.16132      0.01485129     10.732425      749.67055     -25.232357      724.43819    
   3856000   291.85709      0.01485129     10.304441      724.10548     -26.76347       697.34201    
   3857000   310.6964       0.01485129     4.1274159      770.84634     -24.422372      746.42397    
   3858000   303.88042      0.01485129     19.27308       753.93569     -24.094941      729.84075    
   3859000   299.6873       0.01485129     11.252118      743.53246     -26.089173      717.44329    
   3860000   305.76364      0.01485129     8.7548728      758.60803     -27.913708      730.69432    
   3861000   300.06877      0.01485129    -1.4557096      744.47889     -27.680771      716.79812    
   3862000   294.84685      0.01485129     16.641939      731.52315     -22.242618      709.28054    
   3863000   292.35838      0.01485129     12.244347      725.3492      -23.63528       701.71392    
   3864000   294.94953      0.01485129     2.5863971      731.77791     -25.776289      706.00162    
   3865000   303.20753      0.01485129    -10.840362      752.26625     -29.576919      722.68933    
   3866000   299.96191      0.01485129     5.811233       744.21376     -29.724337      714.48942    
   3867000   309.54818      0.01485129     16.806519      767.99757     -29.576183      738.42139    
   3868000   299.4619       0.01485129     13.763199      742.97323     -30.219146      712.75408    
   3869000   295.72931      0.01485129     5.8710339      733.71257     -27.849878      705.86269    
   3870000   297.55813      0.01485129     1.1703071      738.24993     -26.353951      711.89598    
   3871000   306.82389      0.01485129     10.860466      761.23854     -26.651426      734.58711    
   3872000   303.21452      0.01485129     10.690062      752.28359     -26.234601      726.04899    
   3873000   287.17093      0.01485129     7.099803       712.47899     -27.327331      685.15166    
   3874000   303.62932      0.01485129     6.5517472      753.31272     -27.8929        725.41982    
   3875000   318.13084      0.01485129     7.3243843      789.29139     -31.971379      757.32001    
   3876000   289.21196      0.01485129     9.3296227      717.54284     -29.661461      687.88138    
   3877000   292.82985      0.01485129     7.5229453      726.51892     -25.829784      700.68914    
   3878000   313.13107      0.01485129     8.3360763      776.88681     -23.657892      753.22891    
   3879000   303.96457      0.01485129     9.5061005      754.14448     -26.548799      727.59568    
   3880000   284.10873      0.01485129     7.285164       704.88158     -23.681065      681.20051    
   3881000   307.78341      0.01485129     7.7384642      763.61912     -23.431487      740.18763    
   3882000   312.73965      0.01485129     8.1770628      775.91569     -27.808909      748.10678    
   3883000   307.0529       0.01485129     12.820939      761.80671     -26.971899      734.83481    
   3884000   292.17052      0.01485129     7.8221463      724.88311     -27.646986      697.23612    
   3885000   287.92236      0.01485129     6.5175971      714.34332     -23.683763      690.65956    
   3886000   300.36171      0.01485129     8.1137936      745.20569     -27.411293      717.7944     
   3887000   315.79722      0.01485129     8.6061533      783.50161     -32.654346      750.84726    
   3888000   294.45273      0.01485129     7.842332       730.54533     -27.511774      703.03355    
   3889000   296.61524      0.01485129     9.7062415      735.91058     -26.365854      709.54473    
   3890000   317.92282      0.01485129     8.3382874      788.77529     -24.065692      764.7096     
   3891000   295.87236      0.01485129     3.9505773      734.06749     -26.858359      707.20913    
   3892000   286.84654      0.01485129     8.6650082      711.67418     -31.702831      679.97135    
   3893000   306.10331      0.01485129     8.6351792      759.45075     -27.427392      732.02336    
   3894000   318.50755      0.01485129     5.5247973      790.22601     -28.635744      761.59026    
   3895000   289.11443      0.01485129     6.4672838      717.30088     -26.02522       691.27566    
   3896000   298.43602      0.01485129     9.1323328      740.42798     -28.926707      711.50128    
   3897000   306.0735       0.01485129     14.59243       759.37678     -34.532849      724.84393    
   3898000   317.87702      0.01485129     9.5391255      788.66166     -31.299219      757.36244    
   3899000   305.96356      0.01485129     6.0512374      759.10403     -31.934572      727.16945    
   3900000   294.20786      0.01485129     3.8879139      729.9378      -29.193306      700.7445     
   3901000   304.75187      0.01485129     8.5618147      756.09778     -32.784636      723.31314    
   3902000   306.27996      0.01485129     11.217419      759.88902     -27.194618      732.6944     
   3903000   299.16462      0.01485129     9.955497       742.23566     -29.452033      712.78363    
   3904000   303.07582      0.01485129     5.412653       751.93945     -32.543339      719.39612    
   3905000   294.15319      0.01485129     7.8738309      729.80217     -31.775745      698.02642    
   3906000   302.35711      0.01485129     9.006407       750.15631     -27.906017      722.2503     
   3907000   304.64819      0.01485129     8.4441092      755.84056     -28.78644       727.05412    
   3908000   293.12949      0.01485129     9.278366       727.26234     -26.740698      700.52165    
   3909000   295.02961      0.01485129     8.0035793      731.97659     -27.87703       704.09956    
   3910000   299.16297      0.01485129     8.9829582      742.23159     -24.240092      717.99149    
   3911000   299.94723      0.01485129     7.8047761      744.17736     -28.567175      715.61018    
   3912000   306.98484      0.01485129     7.0871093      761.63785     -25.84808       735.78977    
   3913000   294.89588      0.01485129     7.4352972      731.6448      -26.141348      705.50345    
   3914000   307.53865      0.01485129     8.3075778      763.01187     -31.897382      731.11448    
   3915000   284.01042      0.01485129     9.8622076      704.63767     -29.409852      675.22782    
   3916000   287.85006      0.01485129     7.1398471      714.16393     -29.577156      684.58678    
   3917000   308.95925      0.01485129     7.1210086      766.53643     -26.286331      740.2501     
   3918000   311.95073      0.01485129     9.0306837      773.95836     -26.550918      747.40745    
   3919000   275.172        0.01485129     6.2878112      682.70932     -31.829415      650.8799     
   3920000   299.71741      0.01485129     8.7286394      743.60715     -30.162811      713.44433    
   3921000   312.19675      0.01485129     10.160955      774.56875     -34.500556      740.0682     
   3922000   299.27317      0.01485129     4.7120293      742.50497     -35.402871      707.1021     
   3923000   293.13738      0.01485129     10.039182      727.28193     -32.273839      695.00809    
   3924000   294.06592      0.01485129     9.7304638      729.58564     -34.277939      695.3077     
   3925000   314.04185      0.01485129     2.1640335      779.14649     -33.293253      745.85323    
   3926000   297.05738      0.01485129     7.9241831      737.00754     -28.989263      708.01828    
   3927000   313.43023      0.01485129     10.045182      777.62904     -27.69184       749.9372     
   3928000   306.19358      0.01485129     6.4726812      759.67471     -26.256902      733.41781    
   3929000   293.9508       0.01485129     2.900712       729.30003     -22.203957      707.09608    
   3930000   289.48496      0.01485129     2.3939275      718.22017     -26.116563      692.10361    
   3931000   293.72726      0.01485129     10.315289      728.74542     -23.500591      705.24483    
   3932000   309.73221      0.01485129     12.03032       768.45415     -23.988245      744.4659     
   3933000   324.80988      0.01485129     15.077647      805.86226     -30.559889      775.30237    
   3934000   308.44627      0.01485129     8.1914265      765.2637      -33.750631      731.51307    
   3935000   297.53826      0.01485129     5.9360503      738.20063     -32.397845      705.80278    
   3936000   283.02672      0.01485129     11.118485      702.19709     -34.005612      668.19148    
   3937000   302.77808      0.01485129     8.7207288      751.20076     -29.075108      722.12565    
   3938000   318.77436      0.01485129     6.918329       790.88798     -30.805017      760.08296    
   3939000   297.04959      0.01485129     6.7020878      736.98822     -26.295892      710.69233    
   3940000   287.17366      0.01485129     8.1628168      712.48576     -32.928882      679.55688    
   3941000   301.85604      0.01485129     9.1202743      748.91316     -35.126354      713.78681    
   3942000   305.74515      0.01485129     10.140526      758.56216     -30.359162      728.203      
   3943000   314.17225      0.01485129     5.1169174      779.47002     -27.163777      752.30625    
   3944000   290.94121      0.01485129     7.5794463      721.83315     -29.652863      692.18029    
   3945000   291.90708      0.01485129     8.1950573      724.2295      -23.621983      700.60752    
   3946000   328.85383      0.01485129     18.720689      815.89542     -24.914406      790.98102    
   3947000   307.24473      0.01485129     9.3699415      762.28264     -24.632838      737.6498     
   3948000   301.12868      0.01485129     1.4011727      747.10855     -23.475109      723.63344    
   3949000   298.19042      0.01485129     7.3700188      739.81864     -20.003551      719.81509    
   3950000   304.79467      0.01485129     10.058493      756.20397     -21.063746      735.14023    
   3951000   303.1039       0.01485129     7.9201263      752.00914     -26.463019      725.54612    
   3952000   299.6875       0.01485129     7.3189343      743.53294     -30.323296      713.20964    
   3953000   299.43631      0.01485129     7.2203736      742.90975     -33.517148      709.3926     
   3954000   310.45815      0.01485129     10.026862      770.25523     -28.44118       741.81405    
   3955000   305.88678      0.01485129     7.8184839      758.91353     -28.841436      730.07209    
   3956000   286.35155      0.01485129     6.4341888      710.44608     -27.359062      683.08702    
   3957000   297.26484      0.01485129     7.9170757      737.52226     -27.792383      709.72988    
   3958000   312.20861      0.01485129     7.8181244      774.59816     -29.415468      745.18269    
   3959000   307.98158      0.01485129     7.7998828      764.11079     -27.601453      736.50934    
   3960000   294.66345      0.01485129     4.1636573      731.06813     -26.869278      704.19885    
   3961000   295.35488      0.01485129     10.719528      732.7836      -29.326102      703.4575     
   3962000   311.31584      0.01485129     5.2801884      772.38318     -27.173104      745.21008    
   3963000   302.86133      0.01485129     6.6929815      751.40732     -27.708347      723.69897    
   3964000   291.46109      0.01485129     7.1203497      723.12299     -26.592372      696.53062    
   3965000   300.5015       0.01485129     8.1199171      745.55251     -23.556948      721.99556    
   3966000   307.56463      0.01485129     11.134376      763.07632     -19.924205      743.15211    
   3967000   286.26577      0.01485129     3.3134479      710.23327     -22.126262      688.107      
   3968000   299.97973      0.01485129     5.9766126      744.25798     -21.300423      722.95756    
   3969000   315.06518      0.01485129     9.6208191      781.6854      -21.559701      760.1257     
   3970000   296.64209      0.01485129     8.120924       735.9772      -24.440567      711.53663    
   3971000   292.81558      0.01485129     6.5553411      726.48352     -19.476678      707.00685    
   3972000   312.27689      0.01485129     10.569449      774.76757     -19.450683      755.31689    
   3973000   300.89202      0.01485129     8.6577174      746.52139     -19.349162      727.17223    
   3974000   296.42755      0.01485129     7.6492383      735.44492     -22.221843      713.22308    
   3975000   298.28288      0.01485129     5.4224257      740.04804     -22.729445      717.31859    
   3976000   304.41372      0.01485129     9.4246284      755.25882     -19.867335      735.39149    
   3977000   300.6007       0.01485129     7.7833307      745.79862     -18.567527      727.23109    
   3978000   303.0221       0.01485129     7.955768       751.80617     -16.780483      735.02569    
   3979000   313.96435      0.01485129     9.8289469      778.95421     -20.539647      758.41456    
   3980000   297.89926      0.01485129     11.060274      739.09628     -20.005889      719.0904     
   3981000   290.80221      0.01485129     6.9943125      721.4883      -22.299393      699.18891    
   3982000   327.24012      0.01485129     7.4805068      811.89175     -25.221238      786.67051    
   3983000   308.87368      0.01485129     8.0478875      766.32411     -26.999029      739.32509    
   3984000   295.55711      0.01485129     7.0574341      733.28533     -28.28529       705.00004    
   3985000   284.05851      0.01485129     8.3049358      704.757       -32.173183      672.58382    
   3986000   294.71883      0.01485129     8.5360097      731.20553     -29.850603      701.35493    
   3987000   314.78391      0.01485129     9.8735455      780.98757     -35.272348      745.71522    
   3988000   301.27792      0.01485129     7.6655264      747.47882     -29.69218       717.78664    
   3989000   286.30147      0.01485129     7.0303131      710.32183     -27.897075      682.42475    
   3990000   307.2768       0.01485129     10.446627      762.36221     -26.818424      735.54379    
   3991000   308.50761      0.01485129     7.3170329      765.41589     -29.011744      736.40415    
   3992000   287.67092      0.01485129     7.4567547      713.71949     -22.563151      691.15634    
   3993000   306.20997      0.01485129     11.754091      759.71538     -24.473816      735.24156    
   3994000   311.39973      0.01485129     5.9805772      772.59132     -28.537012      744.0543     
   3995000   298.25212      0.01485129     8.1311244      739.97174     -30.27744       709.6943     
   3996000   297.97154      0.01485129     7.3416168      739.27562     -29.389708      709.88591    
   3997000   297.23229      0.01485129     8.987896       737.4415      -24.174415      713.26709    
   3998000   303.07445      0.01485129     7.6469833      751.93607     -26.52201       725.41406    
   3999000   290.14369      0.01485129     5.5588332      719.8545      -25.960507      693.894      
   4000000   313.48605      0.01485129     8.4291718      777.76754     -24.781558      752.98598    
Loop time of 6868.17 on 1 procs for 4000000 steps with 1500 atoms

Performance: 12.580 ns/day, 1.908 hours/ns, 582.397 timesteps/s, 873.596 katom-step/s
100.0% CPU use with 1 MPI tasks x 1 OpenMP threads

MPI task timing breakdown:
Section |  min time  |  avg time  |  max time  |%varavg| %total
---------------------------------------------------------------
Pair    | 684.92     | 684.92     | 684.92     |   0.0 |  9.97
Bond    | 89.239     | 89.239     | 89.239     |   0.0 |  1.30
Kspace  | 5581.2     | 5581.2     | 5581.2     |   0.0 | 81.26
Neigh   | 0.029578   | 0.029578   | 0.029578   |   0.0 |  0.00
Comm    | 18.104     | 18.104     | 18.104     |   0.0 |  0.26
Output  | 0.089117   | 0.089117   | 0.089117   |   0.0 |  0.00
Modify  | 481.91     | 481.91     | 481.91     |   0.0 |  7.02
Other   |            | 12.66      |            |       |  0.18

Nlocal:           1500 ave        1500 max        1500 min
Histogram: 1 0 0 0 0 0 0 0 0 0
Nghost:           1148 ave        1148 max        1148 min
Histogram: 1 0 0 0 0 0 0 0 0 0
Neighs:              0 ave           0 max           0 min
Histogram: 1 0 0 0 0 0 0 0 0 0

Total # of neighbors = 0
Ave neighs/atom = 0
Ave special neighs/atom = 2
Neighbor list builds = 17505
Dangerous builds = 0
write_data	last_conf.data pair ij
System init for write_data ...
PPPM initialization ...
  using 12-bit tables for long-range coulomb (src/kspace.cpp:342)
  G vector (1/distance) = 0.16093008
  grid = 27 27 27
  stencil order = 5
  estimated absolute RMS force accuracy = 0.039376449
  estimated relative force accuracy = 0.00011858101
  using double precision FFTW3
  3d grid and FFT values/proc = 32768 19683
Generated 1 of 1 mixed pair_coeff terms from arithmetic mixing rule
Total wall time: 1:54:28
