LAMMPS data file via write_data, version 29 Aug 2024, timestep = 0, units = real

1500 atoms
2 atom types
1000 bonds
1 bond types
500 angles
1 angle types

0 134 xlo xhi
0 134 ylo yhi
0 134 zlo zhi

Masses

1 12.0107
2 15.9994

PairIJ Coeffs # lj/cut/coul/long/gpu

1 1 0.053649 2.8 12
1 2 0.0917684 2.925 12
2 2 0.156973 3.05 12

Bond Coeffs # harmonic

1 0 1.16

Angle Coeffs # harmonic

1 0 180

Atoms # full

1 1 1 0.7 9.872673967793897 38.03137671203882 13.348399236494862 0 0 0
2 1 2 -0.35 8.865013223551681 38.26906273767238 12.825211719698304 0 0 0
3 1 2 -0.35 10.880334712036113 37.79369068640526 13.87158675329142 0 0 0
4 2 1 0.7 30.54596776913198 32.08029580120011 91.53153077025503 0 0 0
5 2 2 -0.35 30.893287625261564 32.58086289201232 90.54441299352628 0 0 0
6 2 2 -0.35 30.198647913002397 31.579728710387897 92.51864854698378 0 0 0
7 3 1 0.7 50.43765567636009 21.678952583893647 12.156077500505408 0 0 0
8 3 2 -0.35 49.97504682140711 20.615189369057138 12.155144719829375 0 0 0
9 3 2 -0.35 50.90026453131306 22.742715798730156 12.15701028118144 0 0 0
10 4 1 0.7 91.19455099440857 14.818563024894596 83.58875940348429 0 0 0
11 4 2 -0.35 90.10949167664957 15.017606963045758 83.94740656662606 0 0 0
12 4 2 -0.35 92.27961031216758 14.619519086743434 83.23011224034252 0 0 0
13 5 1 0.7 20.279294360559106 72.10031791687958 28.04322899507509 0 0 0
14 5 2 -0.35 20.106635585514685 72.38529636639981 29.154343854443464 0 0 0
15 5 2 -0.35 20.451953135603528 71.81533946735934 26.932114135706716 0 0 0
16 6 1 0.7 44.54972022704302 89.14785591193841 54.01431194879781 0 0 0
17 6 2 -0.35 43.462246042653604 89.32141555712866 53.64978904437614 0 0 0
18 6 2 -0.35 45.63719441143243 88.97429626674815 54.37883485321948 0 0 0
19 7 1 0.7 102.54092344480608 31.300336856069197 114.76153995504674 0 0 0
20 7 2 -0.35 101.51955084524091 31.56301297231652 114.27842581655489 0 0 0
21 7 2 -0.35 103.56229604437125 31.037660739821874 115.2446540935386 0 0 0
22 8 1 0.7 1.2020244706431518 102.42527809945182 97.64901748655784 0 0 0
23 8 2 -0.35 0.7271310709134483 103.4427103812752 97.9404069352289 0 0 0
24 8 2 -0.35 1.6769178703728551 101.40784581762843 97.35762803788677 0 0 0
25 9 1 0.7 89.03689657758777 65.12077951762862 106.94135278414066 0 0 0
26 9 2 -0.35 88.69613957453899 65.83279809278234 106.09134442329398 0 0 0
27 9 2 -0.35 89.37765358063655 64.4087609424749 107.79136114498735 0 0 0
28 10 1 0.7 21.316243052164207 80.09697772380756 25.90460403352259 0 0 0
29 10 2 -0.35 21.322822362138552 79.1374357495903 26.556398412445503 0 0 0
30 10 2 -0.35 21.309663742189862 81.05651969802481 25.252809654599673 0 0 0
31 11 1 0.7 12.679991414155808 52.61569771664948 46.03152372782655 0 0 0
32 11 2 -0.35 12.285580442603262 52.586519637801814 47.1220229828624 0 0 0
33 11 2 -0.35 13.074402385708353 52.64487579549714 44.94102447279071 0 0 0
34 12 1 0.7 69.81929358086516 14.867213600718982 97.2589872839204 0 0 0
35 12 2 -0.35 68.8999548022384 15.550621892000569 97.44165998992935 0 0 0
36 12 2 -0.35 70.73863235949193 14.183805309437394 97.07631457791146 0 0 0
37 13 1 0.7 99.79928085012328 48.513248021953395 106.15950497060992 0 0 0
38 13 2 -0.35 99.88425102694542 47.362405463944924 106.04143094413782 0 0 0
39 13 2 -0.35 99.71431067330114 49.664090579961865 106.27757899708202 0 0 0
40 14 1 0.7 12.80004104077818 60.28977235885792 116.20403532507085 0 0 0
41 14 2 -0.35 12.099021635269121 59.94894041311341 117.06310771891187 0 0 0
42 14 2 -0.35 13.501060446287237 60.63060430460242 115.34496293122983 0 0 0
43 15 1 0.7 125.22170846593646 131.25418699404887 81.12080897908695 0 0 0
44 15 2 -0.35 124.43507138872266 131.26030196220907 80.26830401375423 0 0 0
45 15 2 -0.35 126.00834554315026 131.24807202588866 81.97331394441966 0 0 0
46 16 1 0.7 81.43651151444601 27.449023294006018 107.73450235916978 0 0 0
47 16 2 -0.35 80.28698421082511 27.29884797061047 107.69407525844393 0 0 0
48 16 2 -0.35 82.58603881806691 27.599198617401566 107.77492945989563 0 0 0
49 17 1 0.7 85.78115056631209 17.797568007278056 35.72549832226965 0 0 0
50 17 2 -0.35 84.8094240963348 18.369256777121997 35.998481138541635 0 0 0
51 17 2 -0.35 86.75287703628939 17.225879237434114 35.45251550599767 0 0 0
52 18 1 0.7 118.45030238593476 90.23220040566856 54.59221807149808 0 0 0
53 18 2 -0.35 117.63466384904629 90.85398585911351 54.05026177526497 0 0 0
54 18 2 -0.35 119.26594092282323 89.61041495222362 55.13417436773119 0 0 0
55 19 1 0.7 33.409127668202444 47.208719478551636 22.948276017302774 0 0 0
56 19 2 -0.35 33.22938702969446 47.520338080306246 21.845467262391367 0 0 0
57 19 2 -0.35 33.58886830671043 46.897100876797026 24.051084772214182 0 0 0
58 20 1 0.7 39.675022807752256 34.10832989220895 6.700498355878749 0 0 0
59 20 2 -0.35 40.595481934183134 34.04363801577941 7.4034705869762005 0 0 0
60 20 2 -0.35 38.75456368132138 34.17302176863849 5.997526124781298 0 0 0
61 21 1 0.7 55.27586725413607 133.50094026490157 54.3030322009246 0 0 0
62 21 2 -0.35 56.08550392526512 132.7724697798678 54.70230555740826 0 0 0
63 21 2 -0.35 54.46623058300701 0.22941074993534016 53.90375884444094 0 1 0
64 22 1 0.7 131.0622009397774 70.41119483877495 46.95165529053269 0 0 0
65 22 2 -0.35 130.1368959272476 69.72682143684149 46.80659088927164 0 0 0
66 22 2 -0.35 131.9875059523072 71.0955682407084 47.096719691793744 0 0 0
67 23 1 0.7 124.47046798303279 101.15539083217988 60.65371644713623 0 0 0
68 23 2 -0.35 125.23310672827925 101.75510237256505 60.017848369169 0 0 0
69 23 2 -0.35 123.70782923778633 100.5556792917947 61.289584525103464 0 0 0
70 24 1 0.7 69.0123270186653 120.18020270773219 86.66690885492923 0 0 0
71 24 2 -0.35 68.19288930350537 120.9200795220555 87.02286409172208 0 0 0
72 24 2 -0.35 69.83176473382524 119.44032589340888 86.31095361813638 0 0 0
73 25 1 0.7 30.73712479543738 28.856436916094474 44.135248799871306 0 0 0
74 25 2 -0.35 29.69330412850919 28.37307065746235 43.985597621093554 0 0 0
75 25 2 -0.35 31.780945462365572 29.339803174726597 44.28489997864906 0 0 0
76 26 1 0.7 91.12657943699816 78.42059762795485 124.9843330369258 0 0 0
77 26 2 -0.35 90.04551329358077 78.71750595297682 124.6864380217119 0 0 0
78 26 2 -0.35 92.20764558041554 78.12368930293287 125.28222805213971 0 0 0
79 27 1 0.7 27.68535161189984 59.704541200634345 62.22395906142143 0 0 0
80 27 2 -0.35 26.838666990835755 59.630304628161326 61.434519967025274 0 0 0
81 27 2 -0.35 28.532036232963925 59.778777773107365 63.01339815581759 0 0 0
82 28 1 0.7 62.07994531005618 53.64082611428612 123.36450280685187 0 0 0
83 28 2 -0.35 61.2496485807524 54.19537842670245 123.95499334369488 0 0 0
84 28 2 -0.35 62.910242039359964 53.086273801869794 122.77401227000887 0 0 0
85 29 1 0.7 5.198674759454408 6.126682150236648 59.146899027352646 0 0 0
86 29 2 -0.35 4.0393020846128636 6.151475974413335 59.17588638862367 0 0 0
87 29 2 -0.35 6.358047434295953 6.10188832605996 59.117911666081625 0 0 0
88 30 1 0.7 69.93195271581968 32.32929478135393 122.45739021546085 0 0 0
89 30 2 -0.35 69.01212722648336 32.3783290933824 121.75232517916199 0 0 0
90 30 2 -0.35 70.851778205156 32.28026046932546 123.16245525175971 0 0 0
91 31 1 0.7 35.35735125064726 95.00246962858479 96.50704762456334 0 0 0
92 31 2 -0.35 35.669531392281215 94.01692761620684 95.98088177522737 0 0 0
93 31 2 -0.35 35.04517110901331 95.98801164096274 97.03321347389931 0 0 0
94 32 1 0.7 57.94942603630453 44.003392170184945 19.01220429828959 0 0 0
95 32 2 -0.35 57.158054761840425 43.15593742200865 18.978263824714244 0 0 0
96 32 2 -0.35 58.740797310768635 44.85084691836124 19.046144771864935 0 0 0
97 33 1 0.7 82.11764135310317 85.19822160489774 2.510513516380691 0 0 0
98 33 2 -0.35 80.97650984101149 85.03485584327201 2.6398599505789595 0 0 0
99 33 2 -0.35 83.25877286519484 85.36158736652347 2.3811670821824227 0 0 0
100 34 1 0.7 118.20066981026935 48.65750119679491 118.62261453206773 0 0 0
101 34 2 -0.35 117.20205218699135 48.60509357794108 118.03472314416969 0 0 0
102 34 2 -0.35 119.19928743354734 48.70990881564874 119.21050591996577 0 0 0
103 35 1 0.7 38.2824404622812 78.97684956014942 93.9105574311272 0 0 0
104 35 2 -0.35 37.13622890155534 79.15505165081372 93.90399443324023 0 0 0
105 35 2 -0.35 39.42865202300706 78.79864746948512 93.91712042901418 0 0 0
106 36 1 0.7 102.73874495492258 6.086457383859184 53.089250521310255 0 0 0
107 36 2 -0.35 101.75811215766609 5.531609189957942 53.3651178783307 0 0 0
108 36 2 -0.35 103.71937775217907 6.641305577760425 52.81338316428981 0 0 0
109 37 1 0.7 99.03351166147436 42.230494399662355 103.91937512528122 0 0 0
110 37 2 -0.35 97.87430499817042 42.22791539538797 103.87655853400318 0 0 0
111 37 2 -0.35 100.19271832477831 42.23307340393674 103.96219171655926 0 0 0
112 38 1 0.7 16.937730601494074 56.438219310919855 105.15195863002536 0 0 0
113 38 2 -0.35 16.980718710471777 57.047501495625845 104.16579067177159 0 0 0
114 38 2 -0.35 16.89474249251637 55.828937126213866 106.13812658827914 0 0 0
115 39 1 0.7 96.96869483635234 44.85411457384662 113.10364264021797 0 0 0
116 39 2 -0.35 96.18010797194893 44.13954358195274 112.64199444642296 0 0 0
117 39 2 -0.35 97.75728170075575 45.5686855657405 113.56529083401298 0 0 0
118 40 1 0.7 8.921854143460214 3.602589135804488 114.71560546602848 0 0 0
119 40 2 -0.35 8.670175883968849 3.643170026716338 115.84724641835929 0 0 0
120 40 2 -0.35 9.17353240295158 3.5620082448926382 113.58396451369767 0 0 0
121 41 1 0.7 33.181067540860305 100.20215923907335 119.69033110592994 0 0 0
122 41 2 -0.35 32.66003511012024 100.95488051307642 118.97791557424897 0 0 0
123 41 2 -0.35 33.70209997160037 99.44943796507029 120.40274663761092 0 0 0
124 42 1 0.7 27.394897364729502 2.0400090087391476 116.43140987885715 0 0 0
125 42 2 -0.35 26.25227703458779 1.8735285256637348 116.54232890293247 0 0 0
126 42 2 -0.35 28.537517694871212 2.20648949181456 116.32049085478184 0 0 0
127 43 1 0.7 60.7058339522713 6.951235823776217 115.42049020688073 0 0 0
128 43 2 -0.35 61.810893524278804 7.00900213094421 115.07248676426735 0 0 0
129 43 2 -0.35 59.60077438026379 6.893469516608223 115.7684936494941 0 0 0
130 44 1 0.7 88.1789070443152 116.89069380559525 7.890790639394331 0 0 0
131 44 2 -0.35 87.55812818866079 117.77301561231086 7.464478732726794 0 0 0
132 44 2 -0.35 88.7996858999696 116.00837199887964 8.317102546061868 0 0 0
133 45 1 0.7 94.51827630052261 132.66978288379954 21.040928018764095 0 0 0
134 45 2 -0.35 93.39631171112178 132.43778956640716 21.222517007460855 0 0 0
135 45 2 -0.35 95.64024088992345 132.90177620119192 20.859339030067336 0 0 0
136 46 1 0.7 8.877211368119909 57.291463991297164 107.63530173135702 0 0 0
137 46 2 -0.35 8.569462495671663 56.94873484696736 108.69992718903394 0 0 0
138 46 2 -0.35 9.184960240568154 57.634193135626965 106.57067627368009 0 0 0
139 47 1 0.7 26.51619891753243 107.75520696759001 31.763504285255216 0 0 0
140 47 2 -0.35 25.792588979777857 107.90346672765385 32.657935781530156 0 0 0
141 47 2 -0.35 27.239808855287006 107.60694720752618 30.869072788980272 0 0 0
142 48 1 0.7 127.21652228441859 24.090034223203563 67.2051893822873 0 0 0
143 48 2 -0.35 126.2064739371208 23.525056688654974 67.28394674115886 0 0 0
144 48 2 -0.35 128.22657063171636 24.655011757752153 67.12643202341575 0 0 0
145 49 1 0.7 31.617948102586876 92.85376017766714 29.147306051639514 0 0 0
146 49 2 -0.35 31.79811987380277 91.9630257611233 28.42638280188179 0 0 0
147 49 2 -0.35 31.437776331370983 93.74449459421098 29.86822930139724 0 0 0
148 50 1 0.7 108.77280990535989 116.61607938381661 82.446203805714 0 0 0
149 50 2 -0.35 108.10301778996886 115.82345936856545 82.96459751090654 0 0 0
150 50 2 -0.35 109.44260202075093 117.40869939906777 81.92781010052147 0 0 0
151 51 1 0.7 113.34736263535328 85.12381238263278 91.91471490911893 0 0 0
152 51 2 -0.35 112.52345286869219 85.67875100868531 92.51372727770193 0 0 0
153 51 2 -0.35 114.17127240201437 84.56887375658025 91.31570254053592 0 0 0
154 52 1 0.7 58.61347756190853 82.71738299667713 115.05602515258641 0 0 0
155 52 2 -0.35 58.56233110260438 81.55854284657325 115.06460106116022 0 0 0
156 52 2 -0.35 58.66462402121268 83.87622314678102 115.04744924401261 0 0 0
157 53 1 0.7 126.61473951983021 93.92710978627535 112.93417792997052 0 0 0
158 53 2 -0.35 125.57506815841039 93.84926509379918 112.42562737781591 0 0 0
159 53 2 -0.35 127.65441088125003 94.00495447875153 113.44272848212512 0 0 0
160 54 1 0.7 108.728469014507 41.37872681924083 126.26165098057206 0 0 0
161 54 2 -0.35 108.00825873931221 42.24819521481539 126.52796258114712 0 0 0
162 54 2 -0.35 109.44867928970179 40.509258423666274 125.99533937999699 0 0 0
163 55 1 0.7 55.56803047450633 85.8881850279347 74.72576449845253 0 0 0
164 55 2 -0.35 54.744786712962686 85.72126324744947 75.5257687661156 0 0 0
165 55 2 -0.35 56.39127423604997 86.05510680841992 73.92576023078946 0 0 0
166 56 1 0.7 67.9239254919458 51.41574313278112 112.39483265224602 0 0 0
167 56 2 -0.35 66.78486950638066 51.36086475665996 112.18237130144887 0 0 0
168 56 2 -0.35 69.06298147751093 51.470621508902276 112.60729400304318 0 0 0
169 57 1 0.7 21.95238629912603 51.75652941118764 77.98981383069876 0 0 0
170 57 2 -0.35 20.844044224141243 51.824284901713106 77.6542739100901 0 0 0
171 57 2 -0.35 23.060728374110816 51.68877392066218 78.32535375130743 0 0 0
172 58 1 0.7 120.80105255395223 69.2902742751363 101.63974221592757 0 0 0
173 58 2 -0.35 121.17410034594265 68.2816196192789 102.07454231954793 0 0 0
174 58 2 -0.35 120.42800476196182 70.2989289309937 101.20494211230721 0 0 0
175 59 1 0.7 27.147423094672813 130.739952165978 14.37605359236526 0 0 0
176 59 2 -0.35 26.891386037451948 129.6831877258651 13.971957139222505 0 0 0
177 59 2 -0.35 27.40346015189368 131.79671660609088 14.780150045508014 0 0 0
178 60 1 0.7 16.332726882925595 72.14072133048472 37.10340145654204 0 0 0
179 60 2 -0.35 15.312919155165607 71.8754536353597 36.6184012005379 0 0 0
180 60 2 -0.35 17.35253461068558 72.40598902560974 37.58840171254617 0 0 0
181 61 1 0.7 94.86828010197183 119.18367384056731 88.00623841490888 0 0 0
182 61 2 -0.35 93.79790469567216 119.47836270165759 88.34247488636628 0 0 0
183 61 2 -0.35 95.93865550827151 118.88898497947703 87.67000194345148 0 0 0
184 62 1 0.7 28.84903937338341 53.80474845497159 64.40728270747107 0 0 0
185 62 2 -0.35 29.413092168886166 54.615859572400595 65.01518335648257 0 0 0
186 62 2 -0.35 28.28498657788065 52.99363733754258 63.79938205845958 0 0 0
187 63 1 0.7 41.2004644662144 78.20628366535821 7.009563675620391 0 0 0
188 63 2 -0.35 40.136595668949276 78.63147307560101 6.827912505453344 0 0 0
189 63 2 -0.35 42.26433326347952 77.78109425511542 7.191214845787438 0 0 0
190 64 1 0.7 23.73669615189391 24.652224880946903 1.9435740746294958 0 0 0
191 64 2 -0.35 23.776943481565972 25.5593642939654 1.2217165832901578 0 0 0
192 64 2 -0.35 23.696448822221846 23.745085467928405 2.665431565968834 0 0 0
193 65 1 0.7 103.64947229793736 36.68091143326876 96.0784589480974 0 0 0
194 65 2 -0.35 103.9194805502193 36.06710511059302 97.02499861548749 0 0 0
195 65 2 -0.35 103.37946404565542 37.294717755944504 95.13191928070732 0 0 0
196 66 1 0.7 90.65954067309366 0.9000926850829706 119.8577581894853 0 0 0
197 66 2 -0.35 89.91673327052243 1.1269202446143967 118.99613970029046 0 0 0
198 66 2 -0.35 91.40234807566489 0.6732651255515445 120.71937667868013 0 0 0
199 67 1 0.7 27.341890679365907 49.15664810275503 65.78466300376908 0 0 0
200 67 2 -0.35 26.945665178055318 48.165303262495605 65.33096623300452 0 0 0
201 67 2 -0.35 27.738116180676496 50.14799294301445 66.23835977453365 0 0 0
202 68 1 0.7 8.831104346938014 86.37075898720452 11.346297946454163 0 0 0
203 68 2 -0.35 8.176406388286198 87.03646201705604 10.657959324129607 0 0 0
204 68 2 -0.35 9.48580230558983 85.70505595735301 12.03463656877872 0 0 0
205 69 1 0.7 15.229586055143544 23.65282879753636 89.09360019354783 0 0 0
206 69 2 -0.35 14.127217286045438 23.709038948593115 89.45028424959085 0 0 0
207 69 2 -0.35 16.331954824241652 23.5966186464796 88.7369161375048 0 0 0
208 70 1 0.7 80.13845295838009 52.978871494056136 119.89320060140136 0 0 0
209 70 2 -0.35 79.02468258953496 53.05698779975584 119.57853664053768 0 0 0
210 70 2 -0.35 81.25222332722521 52.900755188356435 120.20786456226504 0 0 0
211 71 1 0.7 87.022507752768 111.28780077178395 42.06757137275653 0 0 0
212 71 2 -0.35 88.06582892335047 110.8487247793043 42.321132426237675 0 0 0
213 71 2 -0.35 85.97918658218555 111.7268767642636 41.81401031927539 0 0 0
214 72 1 0.7 45.67206191908198 58.34467401092158 120.93610155905415 0 0 0
215 72 2 -0.35 44.514817450174256 58.36295683704498 121.01388958802657 0 0 0
216 72 2 -0.35 46.82930638798971 58.326391184798176 120.85831353008173 0 0 0
217 73 1 0.7 61.058903023162344 44.983110289547184 3.1346364194222898 0 0 0
218 73 2 -0.35 61.007015882629865 46.07708506209634 3.516901931433763 0 0 0
219 73 2 -0.35 61.11079016369482 43.88913551699803 2.7523709074108167 0 0 0
220 74 1 0.7 21.834301230420497 77.10077967732249 52.8040367592145 0 0 0
221 74 2 -0.35 20.684950485225162 77.19639489038505 52.679736334637866 0 0 0
222 74 2 -0.35 22.98365197561583 77.00516446425993 52.92833718379113 0 0 0
223 75 1 0.7 129.44581211798163 105.76426691737225 70.03408027535029 0 0 0
224 75 2 -0.35 128.9085222491167 105.07194301056738 69.27407553531144 0 0 0
225 75 2 -0.35 129.98310198684658 106.45659082417713 70.79408501538914 0 0 0
226 76 1 0.7 6.7871878122851195 38.265561076004786 63.28500441242243 0 0 0
227 76 2 -0.35 7.744602044210854 38.59423044559772 63.851515166069206 0 0 0
228 76 2 -0.35 5.829773580359385 37.936891706411856 62.71849365877566 0 0 0
229 77 1 0.7 73.06915958368646 97.36512301832676 7.622569017867822 0 0 0
230 77 2 -0.35 72.24962906504385 97.97063024008041 7.068194836093866 0 0 0
231 77 2 -0.35 73.88869010232906 96.7596157965731 8.176943199641778 0 0 0
232 78 1 0.7 8.517483304495682 41.34189865893773 43.290760766384544 0 0 0
233 78 2 -0.35 8.653435893041856 40.83464024340872 42.25644660059999 0 0 0
234 78 2 -0.35 8.38153071594951 41.84915707446674 44.325074932169095 0 0 0
235 79 1 0.7 101.8162006250658 44.88390548102739 77.7994196274315 0 0 0
236 79 2 -0.35 100.90326353597762 44.260088406607295 77.4487087364841 0 0 0
237 79 2 -0.35 102.72913771415399 45.50772255544749 78.15013051837892 0 0 0
238 80 1 0.7 2.8456782413859285 123.31420297329976 97.8093722489706 0 0 0
239 80 2 -0.35 3.780787590316951 122.72108854234955 98.1548947190654 0 0 0
240 80 2 -0.35 1.910568892454906 123.90731740424997 97.46384977887581 0 0 0
241 81 1 0.7 104.11938844906138 28.561663374566315 47.87633633607828 0 0 0
242 81 2 -0.35 103.37538472174052 29.397450694288004 48.18214348106529 0 0 0
243 81 2 -0.35 104.86339217638223 27.725876054844626 47.570529191091275 0 0 0
244 82 1 0.7 121.58480046763309 109.74145950923742 48.70997175327967 0 0 0
245 82 2 -0.35 121.86019931543484 108.7017618089015 49.14446475270046 0 0 0
246 82 2 -0.35 121.30940161983133 110.78115720957334 48.27547875385888 0 0 0
247 83 1 0.7 62.495257371335875 65.79064004206595 109.28718700226732 0 0 0
248 83 2 -0.35 61.61197970961863 65.83926395984162 108.53681623595811 0 0 0
249 83 2 -0.35 63.37853503305312 65.74201612429027 110.03755776857652 0 0 0
250 84 1 0.7 51.75194710667801 0.9750219373847461 39.193701625426165 0 0 0
251 84 2 -0.35 52.90305351691019 0.8316866573373413 39.19069666018166 0 0 0
252 84 2 -0.35 50.60084069644583 1.118357217432151 39.19670659067067 0 0 0
253 85 1 0.7 118.54321853748672 43.873959539399465 121.63797868678252 0 0 0
254 85 2 -0.35 119.44919615240616 43.19385973416401 121.3884414827756 0 0 0
255 85 2 -0.35 117.63724092256729 44.55405934463492 121.88751589078943 0 0 0
256 86 1 0.7 65.50778875383911 45.40558577394373 1.680102672278929 0 0 0
257 86 2 -0.35 64.87243809818776 45.72072603357407 2.59804393462828 0 0 0
258 86 2 -0.35 66.14313940949046 45.09044551431339 0.7621614099295775 0 0 0
259 87 1 0.7 97.48561299195774 22.697555833820978 113.82089902917896 0 0 0
260 87 2 -0.35 97.17217756108458 22.188517005092898 114.81500048351876 0 0 0
261 87 2 -0.35 97.7990484228309 23.20659466254906 112.82679757483916 0 0 0
262 88 1 0.7 3.849983410839915 118.67118598645142 50.62287428910978 0 0 0
263 88 2 -0.35 3.8546341373384534 118.41232895592016 49.4921349696875 0 0 0
264 88 2 -0.35 3.8453326843413764 118.93004301698268 51.75361360853206 0 0 0
265 89 1 0.7 52.648177068051034 55.91198273371532 104.69380555334212 0 0 0
266 89 2 -0.35 51.872082407945626 56.40464755384169 103.98630399605356 0 0 0
267 89 2 -0.35 53.42427172815644 55.41931791358895 105.40130711063067 0 0 0
268 90 1 0.7 34.78993502109774 72.43789958974249 73.77840480198077 0 0 0
269 90 2 -0.35 35.54407289533836 71.66214488864904 74.19683127146763 0 0 0
270 90 2 -0.35 34.03579714685712 73.21365429083593 73.35997833249391 0 0 0
271 91 1 0.7 91.64950689098309 23.26231675281297 91.7576645276312 0 0 0
272 91 2 -0.35 90.64348889736684 23.063824370013492 91.2153283122713 0 0 0
273 91 2 -0.35 92.65552488459934 23.46080913561245 92.30000074299112 0 0 0
274 92 1 0.7 99.06771589772202 81.1010930142836 18.070291064712357 0 0 0
275 92 2 -0.35 98.18173620651997 80.80859560434142 18.759555347810377 0 0 0
276 92 2 -0.35 99.95369558892408 81.39359042422579 17.381026781614338 0 0 0
277 93 1 0.7 63.38192462054171 94.00709744450035 117.28674971744732 0 0 0
278 93 2 -0.35 62.22292859798285 93.95990912861123 117.29682357154027 0 0 0
279 93 2 -0.35 64.54092064310058 94.05428576038946 117.27667586335437 0 0 0
280 94 1 0.7 98.4025011371833 22.836612639406983 38.94863051313378 0 0 0
281 94 2 -0.35 98.49195619545544 22.17431539167266 39.896765602766614 0 0 0
282 94 2 -0.35 98.31304607891114 23.498909887141306 38.000495423500944 0 0 0
283 95 1 0.7 19.63303423935223 64.40646079294685 27.386547057603742 0 0 0
284 95 2 -0.35 18.482142469535905 64.26776700811858 27.429116626770654 0 0 0
285 95 2 -0.35 20.783926009168557 64.54515457777511 27.34397748843683 0 0 0
286 96 1 0.7 129.6963971460687 29.346833976612817 112.23864493157652 0 0 0
287 96 2 -0.35 129.078216365837 29.681959895611012 113.16121912445627 0 0 0
288 96 2 -0.35 130.31457792630042 29.011708057614623 111.31607073869677 0 0 0
289 97 1 0.7 76.90536500648845 118.46966405141617 13.643712151629716 0 0 0
290 97 2 -0.35 76.89736735799794 118.93113173780856 12.579483035304534 0 0 0
291 97 2 -0.35 76.91336265497897 118.00819636502379 14.707941267954897 0 0 0
292 98 1 0.7 35.87013244064065 3.3159298474508945 120.83294610717937 0 0 0
293 98 2 -0.35 35.57868203258167 2.7321729071734913 121.79205219845406 0 0 0
294 98 2 -0.35 36.16158284869964 3.8996867877282977 119.87384001590468 0 0 0
295 99 1 0.7 69.32522336362173 19.029072390417138 97.61966574081204 0 0 0
296 99 2 -0.35 68.22792174604352 18.7534205897047 97.36364768515146 0 0 0
297 99 2 -0.35 70.42252498119994 19.304724191129576 97.87568379647261 0 0 0
298 100 1 0.7 131.72210582798445 39.43265093464062 114.56425850492168 0 0 0
299 100 2 -0.35 131.45451530830326 40.54952445553941 114.4011976203053 0 0 0
300 100 2 -0.35 131.98969634766564 38.31577741374183 114.72731938953807 0 0 0
301 101 1 0.7 35.49269221885721 91.67812233310104 102.20205242941252 0 0 0
302 101 2 -0.35 34.62155611576479 91.58275436025721 101.44203477195671 0 0 0
303 101 2 -0.35 36.363828321949626 91.77349030594488 102.96207008686832 0 0 0
304 102 1 0.7 97.89518113615698 72.30935539040219 57.33604648957777 0 0 0
305 102 2 -0.35 98.99050156698385 72.69120441637847 57.328016846110515 0 0 0
306 102 2 -0.35 96.7998607053301 71.92750636442591 57.34407613304502 0 0 0
307 103 1 0.7 52.933350333447265 24.81905424819284 125.8447493770368 0 0 0
308 103 2 -0.35 51.90724715408402 24.27937572829946 125.80654780028493 0 0 0
309 103 2 -0.35 53.95945351281051 25.358732768086217 125.88295095378868 0 0 0
310 104 1 0.7 16.70277985776904 127.62106952426075 123.31549425018741 0 0 0
311 104 2 -0.35 15.543184999715447 127.64290963969691 123.29398205519477 0 0 0
312 104 2 -0.35 17.862374715822636 127.59922940882458 123.33700644518005 0 0 0
313 105 1 0.7 119.5118628998808 109.87975829647843 95.09768891292516 0 0 0
314 105 2 -0.35 118.63191970044956 110.52581704798116 94.70537774130061 0 0 0
315 105 2 -0.35 120.39180609931203 109.23369954497569 95.49000008454972 0 0 0
316 106 1 0.7 88.85755953325777 133.00307546323307 128.68931055846127 0 0 0
317 106 2 -0.35 87.72753045979192 132.92450164504635 128.439389674545 0 0 0
318 106 2 -0.35 89.98758860672362 133.0816492814198 128.93923144237755 0 0 0
319 107 1 0.7 121.242556058449 119.63967435231417 114.00683934428118 0 0 0
320 107 2 -0.35 121.94154857162611 118.72219631201428 114.1303039630584 0 0 0
321 107 2 -0.35 120.54356354527188 120.55715239261407 113.88337472550396 0 0 0
322 108 1 0.7 46.948859333502526 77.47881817700286 108.49710088712028 0 0 0
323 108 2 -0.35 48.09991213803335 77.52314475965423 108.63389487548292 0 0 0
324 108 2 -0.35 45.7978065289717 77.4344915943515 108.36030689875764 0 0 0
325 109 1 0.7 38.77460983059118 42.86742274596701 88.77409146762177 0 0 0
326 109 2 -0.35 37.62670216997438 42.96862021206496 88.64117391591162 0 0 0
327 109 2 -0.35 39.922517491207984 42.76622527986906 88.90700901933192 0 0 0
328 110 1 0.7 70.15529631923665 34.06523741039692 86.44515654092893 0 0 0
329 110 2 -0.35 70.92653909680932 34.83045381049336 86.8516395529546 0 0 0
330 110 2 -0.35 69.38405354166399 33.300021010300476 86.03867352890327 0 0 0
331 111 1 0.7 55.74598339281324 128.74288301204464 83.63478343451153 0 0 0
332 111 2 -0.35 54.907131626022974 129.03564107397355 84.38058530533814 0 0 0
333 111 2 -0.35 56.5848351596035 128.45012495011574 82.88898156368492 0 0 0
334 112 1 0.7 123.8051838352369 41.72471882669475 45.34932025864223 0 0 0
335 112 2 -0.35 122.92995357572002 41.00989838233042 45.61124338695429 0 0 0
336 112 2 -0.35 124.68041409475379 42.439539271059076 45.08739713033017 0 0 0
337 113 1 0.7 128.0255869999647 88.0407084068473 72.18619388257441 0 0 0
338 113 2 -0.35 127.03343582901921 88.61747032130249 72.35525525612101 0 0 0
339 113 2 -0.35 129.0177381709102 87.46394649239211 72.01713250902782 0 0 0
340 114 1 0.7 131.36058442823617 127.34248536515166 131.15153210384378 0 0 0
341 114 2 -0.35 130.27792685891563 127.08011608915152 130.82808975874323 0 0 0
342 114 2 -0.35 132.4432419975567 127.6048546411518 131.47497444894432 0 0 0
343 115 1 0.7 97.80006930222739 81.76476253558172 50.36393552197327 0 0 0
344 115 2 -0.35 98.71369418324652 81.89910898150774 49.66190944749326 0 0 0
345 115 2 -0.35 96.88644442120825 81.63041608965571 51.06596159645328 0 0 0
346 116 1 0.7 122.66431780469804 29.18934356010954 11.297214761049121 0 0 0
347 116 2 -0.35 122.89339706720651 28.11431121434102 10.926501735866546 0 0 0
348 116 2 -0.35 122.43523854218958 30.264375905878058 11.667927786231695 0 0 0
349 117 1 0.7 128.28848895257732 84.63382596738349 30.713033814315235 0 0 0
350 117 2 -0.35 128.4790129147202 84.5221438022874 29.57425037842901 0 0 0
351 117 2 -0.35 128.09796499043446 84.74550813247957 31.85181725020146 0 0 0
352 118 1 0.7 25.959317196141612 128.2441155520473 8.85008325933017 0 0 0
353 118 2 -0.35 24.804725359240305 128.31690795130473 8.935047703488989 0 0 0
354 118 2 -0.35 27.11390903304292 128.17132315278988 8.76511881517135 0 0 0
355 119 1 0.7 3.3493395621652433 12.350021311244937 0.8081780936607058 0 0 0
356 119 2 -0.35 4.346435285952363 12.776637608342847 1.219758769416878 0 0 0
357 119 2 -0.35 2.352243838378124 11.923405014147027 0.3965974179045335 0 0 0
358 120 1 0.7 49.04922015548181 2.2431531829029105 46.67554504921453 0 0 0
359 120 2 -0.35 48.397166769777535 1.35873127263145 47.047330292094564 0 0 0
360 120 2 -0.35 49.70127354118609 3.127575093174371 46.30375980633449 0 0 0
361 121 1 0.7 39.88564214850107 89.98758985753524 97.42273559487552 0 0 0
362 121 2 -0.35 38.84030272492922 89.50680658112574 97.57008867645654 0 0 0
363 121 2 -0.35 40.93098157207292 90.46837313394474 97.2753825132945 0 0 0
364 122 1 0.7 37.917143072894376 103.42362613576634 126.88446382474362 0 0 0
365 122 2 -0.35 36.96399976886683 102.83338392476159 126.58658469768757 0 0 0
366 122 2 -0.35 38.870286376921925 104.01386834677109 127.18234295179967 0 0 0
367 123 1 0.7 71.18350246603764 29.12594669457802 17.786095772770278 0 0 0
368 123 2 -0.35 71.17451059036183 29.660328242147557 16.756554366226073 0 0 0
369 123 2 -0.35 71.19249434171344 28.59156514700848 18.815637179314482 0 0 0
370 124 1 0.7 110.91165295006319 18.15113171197061 82.07068309004916 0 0 0
371 124 2 -0.35 109.75957542208722 18.248271617849014 82.16492325249986 0 0 0
372 124 2 -0.35 112.06373047803915 18.053991806092206 81.97644292759846 0 0 0
373 125 1 0.7 99.97069445623582 115.46172595557837 111.22813540568023 0 0 0
374 125 2 -0.35 99.0917249593976 115.84141845250849 110.57327188447682 0 0 0
375 125 2 -0.35 100.84966395307404 115.08203345864825 111.88299892688364 0 0 0
376 126 1 0.7 111.27176326758777 40.525238347484375 119.68090616989923 0 0 0
377 126 2 -0.35 110.62763063064673 39.629682308560675 120.0396157002642 0 0 0
378 126 2 -0.35 111.91589590452881 41.420794386408076 119.32219663953425 0 0 0
379 127 1 0.7 2.989997496358118 2.8879212908856204 29.293135914622404 0 0 0
380 127 2 -0.35 2.6395353660269736 3.8377050722418584 29.85942829835752 0 0 0
381 127 2 -0.35 3.3404596266892623 1.9381375095293825 28.726843530887287 0 0 0
382 128 1 0.7 13.735317058738003 101.47380620961721 52.26096503634982 0 0 0
383 128 2 -0.35 12.826878265121582 100.94979082065292 51.76523645095117 0 0 0
384 128 2 -0.35 14.643755852354424 101.9978215985815 52.756693621748475 0 0 0
385 129 1 0.7 114.0393659314324 57.623209584328904 55.28348381597711 0 0 0
386 129 2 -0.35 112.97886197147555 58.08801616750233 55.353385111776795 0 0 0
387 129 2 -0.35 115.09986989138925 57.15840300115548 55.21358252017742 0 0 0
388 130 1 0.7 127.51249512727954 40.505604187262065 57.689575313445914 0 0 0
389 130 2 -0.35 126.44265579978881 40.27940871233174 57.30243267761873 0 0 0
390 130 2 -0.35 128.58233445477026 40.731799662192394 58.076717949273096 0 0 0
391 131 1 0.7 98.69229308548024 69.36988766648335 99.7020105857877 0 0 0
392 131 2 -0.35 97.96226546026266 68.58053336734828 100.13741781684405 0 0 0