LAMMPS data file via write_data, version 29 Aug 2024, timestep = 4000000, units = real

1500 atoms
2 atom types
1000 bonds
1 bond types
500 angles
1 angle types

0 134 xlo xhi
0 134 ylo yhi
0 134 zlo zhi

Masses

1 12.0107
2 15.9994

PairIJ Coeffs # lj/cut/coul/long/gpu

1 1 0.053649 2.8 12
1 2 0.0917684 2.925 12
2 2 0.156973 3.05 12

Bond Coeffs # harmonic

1 0 1.16

Angle Coeffs # harmonic

1 0 180

Atoms # full

636 212 2 -0.35 9.010651885426675 6.13229222961563 16.160317495316644 -5 -6 -1
635 212 2 -0.35 7.256055967850085 6.522242594119633 17.62719577222147 -5 -6 -1
634 212 1 0.7 8.13335392663838 6.3272674118676315 16.893756633769055 -5 -6 -1
1448 483 2 -0.35 25.668390299344495 7.1858522309655966 17.757614948921425 4 8 -2
1447 483 1 0.7 26.708611175964336 6.736986250431628 18.006733112375706 4 8 -2
1449 483 2 -0.35 27.748832052584177 6.28812026989766 18.255851275829986 4 8 -2
1092 364 2 -0.35 26.213693093441695 1.4185051247816376 13.528857746511711 3 -5 0
191 64 2 -0.35 27.68513960360075 18.579529962387415 13.145348736873084 -2 4 -4
192 64 2 -0.35 26.101254575503887 16.92946275522886 12.756779013870693 -2 4 -4
190 64 1 0.7 26.89319708955232 17.75449635880814 12.951063875371888 -2 4 -4
1090 364 1 0.7 25.246201660315098 1.3508263489397396 12.892477427735633 3 -5 0
1091 364 2 -0.35 24.2787102271885 1.2831475730978417 12.256097108959555 3 -5 0
474 158 2 -0.35 50.74184820157729 1.6059152363406246 13.285104271550203 4 1 -4
472 158 1 0.7 50.43484338266656 1.3305587108223544 14.369321420011845 4 1 -4
473 158 2 -0.35 50.12783856375582 1.055202185304084 15.453538568473487 4 1 -4
813 271 2 -0.35 82.25650214299543 9.664393285973759 9.706408782119098 -2 -3 -1
811 271 1 0.7 82.73616922806448 10.511809591451676 10.336809521896011 -2 -3 -1
812 271 2 -0.35 83.21583631313354 11.359225896929594 10.967210261672923 -2 -3 -1
871 291 1 0.7 89.29802133521939 10.831172369606705 18.882136735310624 4 -3 4
872 291 2 -0.35 90.23314805758513 11.125609384186077 18.26210056091333 4 -3 4
581 194 2 -0.35 103.14965140871462 1.2490455870803459 18.98353032174737 2 -1 1
580 194 1 0.7 102.15287460951602 0.8516256245025394 19.424090630813563 2 -1 1
582 194 2 -0.35 101.15609781031742 0.4542056619247331 19.864650939879752 2 -1 1
1142 381 2 -0.35 105.31885138045287 5.6931038503624185 18.41176246731248 -2 -1 1
1141 381 1 0.7 105.88936321626397 4.68375237288865 18.375350379743054 -2 -1 1
1143 381 2 -0.35 106.45987505207508 3.6744008954148812 18.338938292173626 -2 -1 1
1297 433 1 0.7 111.10423856000135 7.1787213848762175 16.437002816476237 -2 0 2
1298 433 2 -0.35 110.37202370741807 6.962176514555776 15.563750430968467 -2 0 2
1299 433 2 -0.35 111.83645341258463 7.395266255196658 17.310255201984006 -2 0 2
108 36 2 -0.35 102.83494107809747 18.34603968983767 19.818926075779345 1 -7 7
890 297 2 -0.35 5.280555729415314 21.05731356391364 9.181443144365051 4 3 11
889 297 1 0.7 4.605724944929939 20.78816987821565 10.085746792902428 4 3 11
891 297 2 -0.35 3.9308941604445637 20.51902619251766 10.990050441439804 4 3 11
81 27 2 -0.35 8.652685544199906 35.856998737650535 15.441312685859266 0 3 2
80 27 2 -0.35 10.835211689887805 36.2485721892596 16.123698101436506 0 3 2
79 27 1 0.7 9.743948617043856 36.052785463455066 15.782505393647886 0 3 2
1002 334 2 -0.35 24.293212561352725 25.805985278022078 9.229697715382766 8 6 -4
1000 334 1 0.7 24.933486909260633 26.526386495022283 9.87519817700533 8 6 -4
1001 334 2 -0.35 25.573761257168545 27.24678771202249 10.520698638627897 8 6 -4
282 94 2 -0.35 25.003155140387612 33.61738279082091 7.1075200306859925 3 2 -1
280 94 1 0.7 25.77735189182933 33.51074526341307 6.2502873739330695 3 2 -1
281 94 2 -0.35 26.55154864327105 33.40410773600524 5.393054717180146 3 2 -1
540 180 2 -0.35 41.244879831056444 35.781972229111275 5.666430792105426 6 3 3
538 180 1 0.7 41.50428597846181 34.73442264929393 6.091811008516989 6 3 3
539 180 2 -0.35 41.76369212586717 33.68687306947659 6.517191224928552 6 3 3
66 22 2 -0.35 59.12942572329852 32.34914116368585 10.191816655624049 0 -2 -6
65 22 2 -0.35 57.49711439005023 30.736464979493594 9.849420340963837 0 -2 -6
293 98 2 -0.35 75.4458931355825 19.232250487707187 15.85083919958701 -5 -11 -1
292 98 1 0.7 76.15516790906764 19.894172341764794 15.214923517426964 -5 -11 -1
294 98 2 -0.35 76.86444268255279 20.556094195822396 14.579007835266918 -5 -11 -1
64 22 1 0.7 58.31327005667438 31.542803071589724 10.020618498293944 0 -2 -6
1278 426 2 -0.35 90.43023217717857 20.93912669284961 7.602279466795421 -3 -1 -3
1276 426 1 0.7 90.33766455595085 21.623113127661814 6.669973834241835 -3 -1 -3
1277 426 2 -0.35 90.24509693472314 22.307099562474022 5.7376682016882485 -3 -1 -3
894 298 2 -0.35 95.4321986533241 20.807869251764934 6.879207019228677 4 0 -8
821 274 2 -0.35 104.10901066310745 22.28655267631145 1.2491522242497022 3 -2 0
820 274 1 0.7 104.83201723877445 21.393149545752888 1.0920142662245427 3 -2 0
822 274 2 -0.35 105.55502381444147 20.499746415194327 0.9348763081993829 3 -2 0
545 182 2 -0.35 104.68271918155138 21.67401400532068 16.406932025403158 -5 -2 -1
544 182 1 0.7 103.69119391472692 21.62585256709285 17.007063778532086 -5 -2 -1
893 298 2 -0.35 97.33788273840752 20.634203623225392 5.567487377949152 4 0 -8
546 182 2 -0.35 102.69966864790246 21.57769112886502 17.607195531661016 -5 -2 -1
1459 487 1 0.7 103.35439424760443 34.70472257172418 14.445329915098185 -4 0 -4
892 298 1 0.7 96.38504069586581 20.72103643749516 6.223347198588915 4 0 -8
1461 487 2 -0.35 102.89861725634599 34.672927918990034 15.511564614540903 -4 0 -4
1460 487 2 -0.35 103.81017123886288 34.73651722445834 13.379095215655468 -4 0 -4
1339 447 1 0.7 102.3429758191884 28.83831171585971 2.3801063486081455 -5 -2 3
1341 447 2 -0.35 101.22845188998642 29.159456860642358 2.397490456912781 -5 -2 3
1340 447 2 -0.35 103.45749974839038 28.517166571077063 2.36272224030351 -5 -2 3
1104 368 2 -0.35 132.7590755023862 37.9789938860696 16.174203510297346 -8 3 0
863 288 2 -0.35 127.02817380018527 39.362564772271725 1.8404037228614425 0 -1 5
925 309 1 0.7 126.16707904319513 28.13894989040943 13.54060040922807 10 5 -4
926 309 2 -0.35 126.91221724764664 28.911485522635065 13.100648419564545 10 5 -4
927 309 2 -0.35 125.42194083874362 27.3664142581838 13.980552398891595 10 5 -4
1102 368 1 0.7 132.93975589763699 36.9482550254841 16.674735223628872 -8 3 0
1103 368 2 -0.35 133.12043629288777 35.91751616489859 17.175266936960398 -8 3 0
1320 440 2 -0.35 7.880763273172121 51.26147741520511 6.029011791290012 0 -7 6
1318 440 1 0.7 6.800206589412618 50.83994033277079 6.011583615473937 0 -7 6
1319 440 2 -0.35 5.719649905653115 50.418403250336475 5.994155439657861 0 -7 6
442 148 1 0.7 43.89455009600782 51.12684723768014 8.547532973571341 4 -1 0
444 148 2 -0.35 45.02344501179473 51.36060445188388 8.676194676957074 4 -1 0
443 148 2 -0.35 42.76565518022091 50.8930900234764 8.418871270185608 4 -1 0
1356 452 2 -0.35 94.50084804997681 43.56971132812261 12.496847979004526 4 -11 2
1355 452 2 -0.35 94.87931386132021 43.708419414703314 10.212132745903451 4 -11 2
1354 452 1 0.7 94.69008095564851 43.63906537141296 11.354490362453989 4 -11 2
862 288 1 0.7 126.4761746430025 39.4912405960029 2.8525002908112937 0 -1 5
864 288 2 -0.35 125.9241754858197 39.61991641973409 3.8645968587611446 0 -1 5
736 246 1 0.7 118.20448749845524 45.05907193742902 10.264964889699048 5 2 -4
737 246 2 -0.35 118.83833578674532 44.089783804713285 10.330667729887775 5 2 -4
738 246 2 -0.35 117.57063921016515 46.02836007014475 10.19926204951032 5 2 -4
730 244 1 0.7 123.17793911750252 54.404901874252936 14.914840569523314 4 3 -2
732 244 2 -0.35 123.14037058078591 53.89655115174798 13.872838579134307 4 3 -2
731 244 2 -0.35 123.21550765421912 54.91325259675789 15.956842559912321 4 3 -2
1469 490 2 -0.35 4.089229585374333 74.54532205049748 5.022162294847609 5 -7 0
1470 490 2 -0.35 4.972407471799719 73.72626378141587 3.0393510651099445 5 -7 0
1468 490 1 0.7 4.530818528587026 74.13579291595667 4.030756679978777 5 -7 0
153 51 2 -0.35 13.16933226526105 59.83127842995224 8.88544113235106 1 0 6
152 51 2 -0.35 13.928707287961693 57.65707042439013 9.165742975820349 1 0 6
151 51 1 0.7 13.549019776611372 58.74417442717118 9.025592054085704 1 0 6
74 25 2 -0.35 4.629121348966564 70.44871268067376 6.074744463718691 -2 -4 -1
75 25 2 -0.35 6.646101201785927 69.3364289674316 5.797224708434134 -2 -4 -1
73 25 1 0.7 5.637611275376245 69.89257082405268 5.935984586076413 -2 -4 -1
24 8 2 -0.35 31.311467855038714 61.020212266747805 15.506406467971035 -2 4 0
22 8 1 0.7 30.32162530284938 61.527134713832815 15.176495336730653 -2 4 0
23 8 2 -0.35 29.33178275066005 62.034057160917826 14.846584205490272 -2 4 0
132 44 2 -0.35 25.267860283891803 64.03856965464823 1.6130990494769704 -7 0 -4
130 44 1 0.7 25.943431207510155 64.72593664287893 0.967552342685024 -7 0 -4
131 44 2 -0.35 26.619002131128507 65.41330363110964 0.32200563589307696 -7 0 -4
1140 380 2 -0.35 33.57859130456225 66.46752954177151 17.418038019837645 2 2 1
1138 380 1 0.7 32.84553900649313 66.47844514285227 18.31699028661742 2 2 1
559 187 1 0.7 47.299891626892375 68.83260834047351 1.2248775521222133 0 -2 3
561 187 2 -0.35 46.782961084986894 69.31589146384832 0.30573651968744076 0 -2 3
560 187 2 -0.35 47.81682216879786 68.34932521709871 2.1440185845569855 0 -2 3
768 256 2 -0.35 76.56618105270509 68.99881396065473 9.788566129083618 1 3 8
766 256 1 0.7 77.45363097073162 69.52018958618432 9.253589400524417 1 3 8
767 256 2 -0.35 78.34108088875814 70.0415652117139 8.718612671965216 1 3 8
638 213 2 -0.35 102.45314056404227 76.65721387082294 3.7788658156246484 5 6 -1
637 213 1 0.7 102.86748090801225 76.49463206500114 2.7076565756658386 5 6 -1
1254 418 2 -0.35 103.99544842198397 63.316634786145855 16.419357979557777 -5 -6 4
1252 418 1 0.7 104.4156284366725 63.4789667707905 17.488328082983084 -5 -6 4
691 231 1 0.7 125.6349060063436 57.91549499857413 8.20459828233417 3 6 1
693 231 2 -0.35 125.6486713357811 57.56331893056196 7.099436514616027 3 6 1
692 231 2 -0.35 125.6211406769061 58.267671066586296 9.30976005005231 3 6 1
200 67 2 -0.35 41.51786889066989 94.29105813168397 13.116994497690705 -3 2 -5
201 67 2 -0.35 39.97056159564188 95.4161370994398 14.429411143067608 -3 2 -5
199 67 1 0.7 40.744215243155885 94.85359761556188 13.773202820379156 -3 2 -5
603 201 2 -0.35 40.12689932207196 95.19109672246694 7.585101527261488 1 -3 -2
601 201 1 0.7 41.15151547713153 94.75405726851744 7.908765319618062 1 -3 -2
602 201 2 -0.35 42.17613163219111 94.31701781456795 8.232429111974636 1 -3 -2
29 10 2 -0.35 65.17817594668284 86.4892584029043 2.230355695363263 -3 1 -1
30 10 2 -0.35 63.13150564820492 86.80080527142773 3.2774847409138403 -3 1 -1
28 10 1 0.7 64.15484079744388 86.64503183716602 2.7539202181385516 -3 1 -1
513 171 2 -0.35 68.62179367884393 82.46936830236336 19.797171324358015 3 -5 3
439 147 1 0.7 61.69126530968242 92.71193245835617 0.5082456667651939 -2 2 1
441 147 2 -0.35 62.019211077539374 93.68354605321636 1.0504804827170804 -2 2 1
519 173 2 -0.35 96.16408931585765 91.00697989027653 8.147889126525056 -2 0 0
1351 451 1 0.7 95.77089656937072 91.60894526065817 16.11196460395021 7 0 3
1353 451 2 -0.35 95.51975552007823 90.77003443715853 16.872725278258827 7 0 3
1352 451 2 -0.35 96.02203761866322 92.44785608415782 15.35120392964159 7 0 3
517 173 1 0.7 96.58191406354676 90.35107516855864 7.287185068066786 -2 0 0
518 173 2 -0.35 96.99973881123587 89.69517044684075 6.426481009608516 -2 0 0
639 213 2 -0.35 103.28182125198224 76.33205025917934 1.636447335707029 5 6 -1
930 310 2 -0.35 132.68888296698435 91.4355815343637 4.3553029865094235 -4 -2 3
929 310 2 -0.35 0.7192454620902335 91.01823027110207 3.3132636103241158 -3 -2 3
928 310 1 0.7 133.70406421453728 91.2269059027329 3.8342832984167696 -4 -2 3
92 31 2 -0.35 130.5863350738526 93.60883240831512 3.466465980834605 -1 -1 -7
91 31 1 0.7 131.63292887109426 94.10796306136005 3.433149096703171 -1 -1 -7
93 31 2 -0.35 132.67952266833595 94.607093714405 3.3998322125717375 -1 -1 -7
1463 488 2 -0.35 24.684199083925794 98.27222688421455 3.3720981037802575 -4 -4 -2
1464 488 2 -0.35 25.317829871211917 96.69219521598754 4.9482998525442 -4 -4 -2
1462 488 1 0.7 25.001014477568855 97.48221105010104 4.160198978162229 -4 -4 -2
742 248 1 0.7 33.771973309642014 102.19986941632651 14.10295048646621 -1 -4 -5
743 248 2 -0.35 33.58618022796476 101.60878479618798 13.122287495099831 -1 -4 -5
744 248 2 -0.35 33.95776639131926 102.79095403646504 15.08361347783259 -1 -4 -5
359 120 2 -0.35 25.46121531526451 112.07336404647216 8.281503939088939 -6 1 -5
358 120 1 0.7 24.536505868615762 112.76299145332948 8.159329968908471 -6 1 -5
360 120 2 -0.35 23.611796421967018 113.4526188601868 8.037155998728002 -6 1 -5
507 169 2 -0.35 38.293431201219185 97.63832480472136 9.919883440734761 6 1 2
505 169 1 0.7 39.32657127554357 97.80437819411046 9.419236001215552 6 1 2
506 169 2 -0.35 40.35971134986796 97.97043158349955 8.918588561696343 6 1 2
1275 425 2 -0.35 51.79222926407405 99.69273996657391 1.0129079475128422 -1 -4 -9
1273 425 1 0.7 52.44759457521245 99.98329958029319 0.10094774014102392 -1 -4 -9
957 319 2 -0.35 52.210174956091684 113.97979931676899 2.828950329060402 -5 1 1
955 319 1 0.7 53.359339031621104 113.97582790836769 2.9870836760412716 -5 1 1
956 319 2 -0.35 54.50850310715053 113.97185649996638 3.1452170230221417 -5 1 1
841 281 1 0.7 70.99444769246605 108.57420392365105 133.8829639031153 3 3 0
842 281 2 -0.35 70.17641987159148 108.30184787828907 0.6590133015610807 3 3 1
141 47 2 -0.35 88.72861459417805 103.09284132667771 10.290144409195218 6 -1 5
140 47 2 -0.35 86.67350520236045 102.37959397712217 9.48379237316448 6 -1 5
139 47 1 0.7 87.70105989826925 102.73621765189995 9.886968391179849 6 -1 5
455 152 2 -0.35 91.77668249441814 98.1385353390929 13.441214407416144 3 -2 3
454 152 1 0.7 92.57768351778519 98.47245762815542 12.671478566082667 3 -2 3
456 152 2 -0.35 93.37868454115225 98.80637991721795 11.901742724749191 3 -2 3
1169 390 2 -0.35 89.7350876897331 100.62140925825597 17.290870727883984 -1 -1 0
1168 390 1 0.7 90.31631106262296 101.60260631060947 17.503077549776464 -1 -1 0
1494 498 2 -0.35 117.60895816502857 103.05272799224501 17.284224226966458 2 2 3
1492 498 1 0.7 118.48349726996976 102.35084535270832 16.98733685060354 2 2 3
1493 498 2 -0.35 119.35803637491095 101.64896271317164 16.690449474240623 2 2 3
149 50 2 -0.35 126.02208491568453 96.57397801264457 8.308655393954352 -5 0 -4
148 50 1 0.7 125.37657487559618 96.98645876554853 9.179733126782542 -5 0 -4
150 50 2 -0.35 124.73106483550782 97.39893951845248 10.050810859610731 -5 0 -4
847 283 1 0.7 117.88132116874912 98.82116648266873 14.812443743297504 2 4 -5
848 283 2 -0.35 117.80704960716108 99.03545444715267 15.950057211666405 2 4 -5
849 283 2 -0.35 117.95559273033716 98.60687851818479 13.674830274928604 2 4 -5
1268 423 2 -0.35 11.729521526190014 132.2797938724036 12.034447174899974 7 1 4
1267 423 1 0.7 11.336855162384568 131.48125913285782 12.778594604160624 7 1 4
1269 423 2 -0.35 10.944188798579122 130.68272439331204 13.522742033421272 7 1 4
49 17 1 0.7 40.262779874155896 128.12477227738046 19.113664648636743 -1 1 2
51 17 2 -0.35 39.183054854642094 127.94705231033262 18.728684784813975 -1 1 2
128 43 2 -0.35 66.84395775467046 127.30457812742713 3.4135919359520144 -1 -3 2
127 43 1 0.7 66.40117207503383 126.34866660141039 2.9280262901976384 -1 -3 2
129 43 2 -0.35 65.95838639539721 125.39275507539364 2.4424606444432624 -1 -3 2
494 165 2 -0.35 80.98587335182057 129.27224197798648 14.828403913633432 -1 -2 8
493 165 1 0.7 81.9323779338565 128.7602897492278 15.261571308131524 -1 -2 8
495 165 2 -0.35 82.87888251589241 128.24833752046916 15.694738702629616 -1 -2 8
17 6 2 -0.35 100.72476920177431 126.39640998659422 4.202237307482993 -2 -2 4
16 6 1 0.7 101.13336838616515 127.47425640948332 4.332213440597196 -2 -2 4
18 6 2 -0.35 101.54196757055598 128.5521028323724 4.462189573711399 -2 -2 4
1288 430 1 0.7 7.150638493765019 18.908290985840722 31.174112878061436 5 -6 11
810 270 2 -0.35 1.8027494253339909 17.80968113834431 26.304126460899713 9 1 -4
808 270 1 0.7 1.5594229274761076 17.915997003362463 27.433324916569358 9 1 -4
138 46 2 -0.35 11.399777929593721 8.089706991405484 21.509244675918406 3 -2 -2
136 46 1 0.7 10.592786659543062 7.8300552523721265 20.717445418228444 3 -2 -2
137 46 2 -0.35 9.785795389492403 7.5704035133387695 19.92564616053848 3 -2 -2
809 270 2 -0.35 1.3160964296182243 18.022312868380613 28.562523372239 9 1 -4
1490 497 2 -0.35 13.901105752102737 9.097259033772083 18.937472130874696 -5 0 -5
1489 497 1 0.7 14.290453509288694 8.011333407090165 18.815924373638367 -5 0 -5
1491 497 2 -0.35 14.679801266474653 6.925407780408246 18.694376616402042 -5 0 -5
1289 430 2 -0.35 6.465339493360244 18.08011086021748 31.610097923178323 5 -6 11
317 106 2 -0.35 24.93459626048952 6.5473797666477775 24.72427659411846 -3 2 -3
316 106 1 0.7 25.72425067003921 7.339560064324481 24.416874106407725 -3 2 -3
318 106 2 -0.35 26.513905079588902 8.131740362001185 24.10947161869699 -3 2 -3
522 174 2 -0.35 35.20455851933843 1.7881266966762157 31.859705421157752 -2 1 -1
520 174 1 0.7 36.11409818309114 1.2847807378674092 32.37446793514807 -2 1 -1
521 174 2 -0.35 37.02363784684385 0.7814347790586026 32.88923044913838 -2 1 -1
274 92 1 0.7 40.94208986559243 5.8501720589564865 32.31723323751567 6 -7 -5
275 92 2 -0.35 40.92881374952879 6.551756403688785 31.39354327223 6 -7 -5
276 92 2 -0.35 40.955365981656065 5.148587714224188 33.24092320280134 6 -7 -5
483 161 2 -0.35 45.079921222249936 6.933511959548847 34.75350922088065 4 -3 5
481 161 1 0.7 45.23733952457847 6.4539542807561885 35.79794395354797 4 -3 5
1428 476 2 -0.35 52.297380394448325 14.0922464625932 38.08631327631856 -6 3 -11
482 161 2 -0.35 45.394757826907 5.974396601963527 36.842378686215284 4 -3 5
25 9 1 0.7 84.84508804734064 1.8227808506487073 20.32636364147544 1 5 7
873 291 2 -0.35 88.36289461285365 10.53673535502733 19.50217290970792 4 -3 4
27 9 2 -0.35 85.69000216576926 2.588874633939206 20.538072043961048 1 5 7
26 9 2 -0.35 84.00017392891202 1.0566870673582083 20.11465523898983 1 5 7
496 166 1 0.7 85.60045440670297 0.5451064512838439 24.327005786552593 -5 1 2
498 166 2 -0.35 85.84870782836008 1.3726301376372243 25.101069599917288 -5 1 2
627 209 2 -0.35 84.71271478867234 18.420837225677055 26.238594655504905 -1 -2 0
107 36 2 -0.35 102.57989593990723 18.93983406364 22.04710026536366 1 -7 7
106 36 1 0.7 102.70741850900235 18.642936876738837 20.933013170571503 1 -7 7
269 90 2 -0.35 98.4803850943299 6.8008500255013695 28.857469641036378 -2 -1 0
268 90 1 0.7 98.405648574408 5.681423019872125 29.152253683444865 -2 -1 0
270 90 2 -0.35 98.3309120544861 4.56199601424288 29.447037725853356 -2 -1 0
143 48 2 -0.35 120.25538639395592 4.077403781444301 21.51942538957205 -1 2 4
142 48 1 0.7 119.21192598791367 3.6404969543280705 21.262709972344283 -1 2 4
144 48 2 -0.35 118.16846558187144 3.203590127211842 21.005994555116526 -1 2 4
504 168 2 -0.35 120.89304394177171 15.40842449705586 21.53441964228502 1 6 3
503 168 2 -0.35 122.02657361630907 16.65963474197134 23.12564036863382 1 6 3
502 168 1 0.7 121.45980877904039 16.034029619513593 22.330030005459424 1 6 3
569 190 2 -0.35 10.513998180066817 19.511202913481643 34.643750580239946 -2 2 3
1290 430 2 -0.35 7.835937494169793 19.73647111146396 30.738127832944546 5 -6 11
568 190 1 0.7 9.424955994697127 19.807907751810742 34.37625598703121 -2 2 3
570 190 2 -0.35 8.335913809327435 20.104612590139848 34.10876139382246 -2 2 3
350 117 2 -0.35 23.680947917493064 26.686700425799792 22.179994781080033 8 5 2
349 117 1 0.7 23.487224446419344 25.96745464204693 23.06923980879197 8 5 2
351 117 2 -0.35 23.293500975345623 25.24820885829407 23.958484836503906 8 5 2
923 308 2 -0.35 26.539804538156666 27.08911511634065 38.56596239231682 -2 6 4
393 131 2 -0.35 51.03169026101897 22.185955606111403 27.780855900235963 -1 -4 3
135 45 2 -0.35 46.9455776802279 36.33685769585163 30.46348225274993 -1 5 -5
133 45 1 0.7 47.103939909581904 35.565488035462714 29.61171335724756 -1 5 -5
134 45 2 -0.35 47.26230213893591 34.7941183750738 28.75994446174519 -1 5 -5
391 131 1 0.7 51.73390746341019 22.83152589254245 28.440954382236697 -1 -4 3
392 131 2 -0.35 52.43612466580141 23.477096178973504 29.10105286423743 -1 -4 3
341 114 2 -0.35 40.901261548876995 36.75186134594922 23.5497322486886 7 2 2
340 114 1 0.7 39.77046084072199 36.983088973068256 23.433872234476883 7 2 2
342 114 2 -0.35 38.63966013256697 37.214316600187296 23.318012220265167 7 2 2
626 209 2 -0.35 83.43177727897469 18.962640899771166 28.095486648861595 -1 -2 0
625 209 1 0.7 84.07224603382352 18.69173906272411 27.16704065218325 -1 -2 0
1088 363 2 -0.35 83.6924671888121 31.732225280917145 32.66648041745762 3 4 6
1089 363 2 -0.35 81.89011496156424 32.34377942418627 31.339857645608646 3 4 6
1087 363 1 0.7 82.79129107518817 32.03800235255171 32.00316903153313 3 4 6
1162 388 1 0.7 111.22794350662704 24.115197970550245 30.70082902334204 -6 1 0
1164 388 2 -0.35 111.5715854497413 23.529643682970168 31.641380133718247 -6 1 0
1163 388 2 -0.35 110.88430156351278 24.700752258130322 29.76027791296583 -6 1 0
326 109 2 -0.35 102.1436632225244 22.519468918999138 25.153550528850992 1 1 -1
325 109 1 0.7 101.82400537778679 21.446458850061816 25.456978039563122 1 1 -1
327 109 2 -0.35 101.50434753304918 20.373448781124495 25.76040555027525 1 1 -1
32 11 2 -0.35 109.95107946137928 35.16281239918353 24.518867336759072 3 3 0
31 11 1 0.7 110.00102462469444 35.97264687480702 25.347887000429708 3 3 0
33 11 2 -0.35 110.05096978800958 36.7824813504305 26.176906664100343 3 3 0
876 292 2 -0.35 102.75596504042912 27.255285415612605 31.51734054347062 -3 3 -3
874 292 1 0.7 103.56407251343163 27.180869721404726 30.68847106247251 -3 3 -3
875 292 2 -0.35 104.37217998643413 27.106454027196847 29.859601581474397 -3 3 -3
484 162 1 0.7 105.12438972436553 36.37403162691019 35.11085162141006 4 -1 4
486 162 2 -0.35 105.62157296614619 35.41684437515138 35.53770216804406 4 -1 4
485 162 2 -0.35 104.62720648258488 37.33121887866899 34.68400107477606 4 -1 4
683 228 2 -0.35 120.84460790108571 33.66280384069566 27.35610704718813 -1 0 1
682 228 1 0.7 119.76036279194439 33.28801302630324 27.52799185963288 -1 0 1
684 228 2 -0.35 118.67611768280307 32.91322221191081 27.699876672077632 -1 0 1
1376 459 2 -0.35 120.40092806829037 37.093070187012636 26.98074080718451 0 0 1
1375 459 1 0.7 121.35772872992781 36.62628727762296 26.520038941127027 0 0 1
1377 459 2 -0.35 122.31452939156526 36.15950436823328 26.05933707506954 0 0 1
980 327 2 -0.35 131.37783584226977 35.390311451877544 38.29672455089721 2 0 0
979 327 1 0.7 131.01902781190995 36.2193551360837 37.56902724636103 2 0 0
981 327 2 -0.35 130.66021978155013 37.04839882028986 36.84132994182486 2 0 0
1041 347 2 -0.35 30.322234357410746 52.48909728745521 26.871060098129973 -2 0 -4
1039 347 1 0.7 29.600523126425838 52.10120798618472 27.69220246643806 -2 0 -4
1040 347 2 -0.35 28.87881189544093 51.713318684914235 28.513344834746146 -2 0 -4
701 234 2 -0.35 50.3090783471878 39.06506595559085 21.905646663883424 -2 3 2
702 234 2 -0.35 49.90517505593606 38.23531202733526 19.77708598824975 -2 3 2
60 20 2 -0.35 50.54010081291749 44.790262866143514 29.08046408120417 -3 3 -3
59 20 2 -0.35 50.356397361825636 45.17426115036237 26.799850488379608 -3 3 -3
58 20 1 0.7 50.448249087371565 44.982262008252945 27.940157284791887 -3 3 -3
700 234 1 0.7 50.10712670156193 38.65018899146306 20.841366326066588 -2 3 2
339 113 2 -0.35 65.42070821390172 50.838475015250346 21.021171155792157 7 -1 -6
337 113 1 0.7 65.4464438837712 51.09863374351588 19.89101403777615 7 -1 -6
338 113 2 -0.35 65.47217955364067 51.35879247178142 18.76085691976015 7 -1 -6
240 80 2 -0.35 63.14874459490075 53.22439658389749 34.16846554603276 3 2 -10
238 80 1 0.7 62.6480956555526 52.2781760863729 33.72167990437224 3 2 -10
239 80 2 -0.35 62.147446716204456 51.33195558884832 33.27489426271171 3 2 -10
1248 416 2 -0.35 80.36130893517148 47.57511532434906 19.46698233225278 2 2 -1
1246 416 1 0.7 79.35043196384079 47.021272493215214 19.336652492098235 2 2 -1
1247 416 2 -0.35 78.3395549925101 46.467429662081365 19.20632265194369 2 2 -1
1371 457 2 -0.35 110.57335052358007 51.18059432996106 37.11001434847256 -4 -2 -7
1369 457 1 0.7 111.64194897010705 51.511188042512224 37.41726857106296 -4 -2 -7
1370 457 2 -0.35 112.71054741663403 51.84178175506339 37.72452279365336 -4 -2 -7
1487 496 2 -0.35 32.591245540255095 69.20101108404923 30.915635315394233 -1 0 0
1486 496 1 0.7 32.053887636018516 69.64289609335066 29.987419757828178 -1 0 0
1488 496 2 -0.35 31.516529731781933 70.08478110265207 29.059204200262126 -1 0 0
1139 380 2 -0.35 32.112486708424 66.48936074393302 19.21594255339719 2 2 1
761 254 2 -0.35 46.63737069832703 71.46058510365644 20.885728278438307 3 0 7
760 254 1 0.7 47.10247519040385 72.5232451696008 20.880125092146898 3 0 7
762 254 2 -0.35 47.56757968248067 73.58590523554516 20.874521905855488 3 0 7
509 170 2 -0.35 66.12419862383129 58.581939474477394 31.254925331900502 -6 -3 2
508 170 1 0.7 67.02914454088679 59.30436136636777 31.18579142327317 -6 -3 2
510 170 2 -0.35 67.9340904579423 60.02678325825815 31.116657514645834 -6 -3 2
462 154 2 -0.35 75.21742074680063 63.039625668956525 24.67503114232754 1 -1 1
460 154 1 0.7 75.69051607493351 64.02217734417069 25.070471423574887 1 -1 1
461 154 2 -0.35 76.1636114030664 65.00472901938485 25.465911704822233 1 -1 1
1253 418 2 -0.35 104.83580845136106 63.64129875543515 18.557298186408396 -5 -6 4
543 181 2 -0.35 121.8720972844971 71.97887608356363 36.90693452454651 -1 9 2
541 181 1 0.7 121.35555627478595 71.07238143499673 36.39993074013699 -1 9 2
542 181 2 -0.35 120.8390152650748 70.16588678642982 35.892926955727475 -1 9 2
197 66 2 -0.35 31.351961024857687 91.86953445166087 28.205679372622264 2 -8 -3
196 66 1 0.7 32.12884979166444 91.45197827962399 27.452226861045315 2 -8 -3
198 66 2 -0.35 32.9057385584712 91.03442210758712 26.698774349468366 2 -8 -3
348 116 2 -0.35 53.04358432342576 80.79810951017792 28.419341911245645 0 1 -2
346 116 1 0.7 51.9107683362798 80.71848667678641 28.655960050170776 0 1 -2
347 116 2 -0.35 50.77795234913385 80.6388638433949 28.892578189095907 0 1 -2
1403 468 2 -0.35 42.930514887364396 84.41566309814053 37.01779548049275 4 6 -10
1402 468 1 0.7 42.22641728670258 84.85061967773616 37.83060501698314 4 6 -10
511 171 1 0.7 68.4635312653575 83.25225928313012 20.638381595760546 3 -5 3
512 171 2 -0.35 68.30526885187108 84.03515026389685 21.479591867163073 3 -5 3
557 186 2 -0.35 72.83479303944988 82.35766440525273 29.151581747602897 8 -3 5
558 186 2 -0.35 73.15437052894167 84.64027662676283 28.88709795904007 8 -3 5
556 186 1 0.7 72.99458178419577 83.49897051600779 29.019339853321483 8 -3 5
835 279 1 0.7 79.71162197306995 81.65869458032746 37.52382008991334 0 3 8
1249 417 1 0.7 94.70985146145541 96.1658438412525 38.26666821196748 1 8 1
1251 417 2 -0.35 94.48101499915619 95.2721470494756 38.96990353381067 1 8 1
836 279 2 -0.35 79.1848124112318 82.58158075994182 37.98895747287872 0 3 8
837 279 2 -0.35 80.23843153490809 80.73580840071311 37.05868270694797 0 3 8
1425 475 2 -0.35 104.70034232984479 92.22615377668427 20.832409864443957 2 6 4
1424 475 2 -0.35 102.48126702974533 92.74718052533032 20.400396045580653 2 6 4
1423 475 1 0.7 103.59080467979506 92.4866671510073 20.616402955012305 2 6 4
577 193 1 0.7 111.69449129211753 94.87988722742384 21.69295552907896 -5 -3 -8
578 193 2 -0.35 110.79165502753348 94.62825956268084 22.376454027753017 -5 -3 -8
579 193 2 -0.35 112.5973275567016 95.13151489216685 21.00945703040491 -5 -3 -8
1258 420 1 0.7 1.8705539571757304 112.77529242019514 22.04033843347553 -4 -3 5
1259 420 2 -0.35 1.2201629645745067 113.43355310806479 22.73982712069546 -4 -3 5
1260 420 2 -0.35 2.520944949776954 112.11703173232551 21.3408497462556 -4 -3 5
1367 456 2 -0.35 17.192838312860765 100.20271117532374 31.190362963634318 4 -11 4
1368 456 2 -0.35 16.241006951498388 98.0932989624661 31.354061392996265 4 -11 4
1366 456 1 0.7 16.71692263217958 99.14800506889492 31.27221217831529 4 -11 4
801 267 2 -0.35 17.156164067171773 104.40650929841998 29.92409008794932 3 3 -5
800 267 2 -0.35 15.269202541508628 103.36647689954141 29.06379431907766 3 3 -5
799 267 1 0.7 16.2126833043402 103.8864930989807 29.49394220351349 3 3 -5
1407 469 2 -0.35 10.703200029114429 111.73772662234246 28.406224059130086 4 -3 4
1405 469 1 0.7 11.178381859689352 112.49554380101642 27.667633948447673 4 -3 4
1406 469 2 -0.35 11.653563690264276 113.2533609796904 26.929043837765263 4 -3 4
532 178 1 0.7 15.19096548880015 114.10975608018728 25.389540552255518 0 -3 -6
534 178 2 -0.35 14.645619141234796 115.13259234747697 25.43429914377396 0 -3 -6
533 178 2 -0.35 15.736311836365504 113.08691981289759 25.344781960737077 0 -3 -6
1244 415 2 -0.35 10.42332027514672 103.14042433614442 34.3701306194039 5 -3 -5
1245 415 2 -0.35 9.261478921430523 101.57334369606212 33.114430441705935 5 -3 -5
1243 415 1 0.7 9.842399598288623 102.35688401610328 33.74228053055492 5 -3 -5
1113 371 2 -0.35 14.08071511785599 107.05498591124851 36.47834057904783 1 2 0
1111 371 1 0.7 13.780642726612186 107.00711109319097 37.597833572241576 1 2 0
1379 460 2 -0.35 56.00358784307135 107.51731587982692 30.479800560308128 4 1 -5
1378 460 1 0.7 56.88847701744835 108.15306243683563 30.877792349571877 4 1 -5
1380 460 2 -0.35 57.77336619182535 108.78880899384431 31.275784138835625 4 1 -5
1263 421 2 -0.35 72.93605226343468 98.7196491988682 37.079179546153966 -1 1 -3
1261 421 1 0.7 72.35015594365214 99.56308293053533 36.539786328963686 -1 1 -3
1262 421 2 -0.35 71.7642596238696 100.40651666220246 36.00039311177341 -1 1 -3
67 23 1 0.7 59.68466894524557 100.14864188821387 37.567622701727736 -2 -9 -3
68 23 2 -0.35 59.40389920752908 99.81268375216753 36.493425101094445 -2 -9 -3
1250 417 2 -0.35 94.93868792375464 97.05954063302937 37.56343289012429 1 8 1
1170 390 2 -0.35 90.89753443551281 102.583803362963 17.715284371668936 -1 -1 0
414 138 2 -0.35 100.25532602593216 113.9845405914323 31.528591947640017 -6 -2 0