LAMMPS (29 Aug 2024 - Update 1)
  using 1 OpenMP thread(s) per MPI task
package gpu 1 gpuID 0
# GCMC for CO2 molecular fluid, rigid/small/nvt dynamics
# Rigid CO2 TraPPE model
# [Potoff and J.I. Siepmann, Vapor-liquid equilibria of
# mixtures containing alkanes, carbon dioxide and
# nitrogen AIChE J., 47,1676-1682 (2001)].

# global model settings

units           real
atom_style      full
boundary        p p p
pair_style      lj/cut/coul/long  12
pair_modify     mix arithmetic shift yes
kspace_style    pppm 1.0e-4
bond_style      harmonic
angle_style     harmonic
neigh_modify    one 4000

# box, start molecules on simple cubic lattice
region          mbox block 0 ${lbox} 0 ${lbox} 0 ${lbox} units box
region          mbox block 0 134 0 ${lbox} 0 ${lbox} units box
region          mbox block 0 134 0 134 0 ${lbox} units box
region          mbox block 0 134 0 134 0 134 units box
create_box      2 mbox                                       bond/types 1                                angle/types 1                               extra/bond/per/atom 2                       extra/angle/per/atom 1                      extra/special/per/atom 2
Created orthogonal box = (0 0 0) to (134 134 134)
  1 by 1 by 1 MPI processor grid
molecule        co2mol ../CO2.txt
Read molecule template co2mol:
# CO2 molecule file. TraPPE model.
  1 molecules
  0 fragments
  3 atoms with max type 2
  2 bonds with max type 1
  1 angles with max type 1
  0 dihedrals with max type 0
  0 impropers with max type 0
create_atoms   	0 random ${nmols} 34578 mbox mol co2mol 464563 overlap 1.2
create_atoms   	0 random 500 34578 mbox mol co2mol 464563 overlap 1.2
Created 1500 atoms
  using lattice units in orthogonal box = (0 0 0) to (134 134 134)
  create_atoms CPU = 0.008 seconds

# rigid CO2 TraPPE model

pair_coeff      1   1  0.053649   2.800
pair_coeff      2   2  0.156973   3.050
bond_coeff      1       0       1.16
angle_coeff     1       0       180

# masses

mass 1 12.0107
mass 2 15.9994

write_data init_conf.data  pair ij
System init for write_data ...
PPPM initialization ...
  using 12-bit tables for long-range coulomb (src/kspace.cpp:342)
  G vector (1/distance) = 0.16152872
  grid = 27 27 27
  stencil order = 5
  estimated absolute RMS force accuracy = 0.038726468
  estimated relative force accuracy = 0.00011662361
  using double precision FFTW3
  3d grid and FFT values/proc = 32768 19683
Generated 1 of 1 mixed pair_coeff terms from arithmetic mixing rule

# MD settings

group           co2 type 1 2
1500 atoms in group co2
velocity       	all create 300 54654
timestep        0.25

# rigid constraints with thermostat
fix             myrigidnvt co2 rigid/nvt molecule temp 300 300 $(100*dt)
fix             myrigidnvt co2 rigid/nvt molecule temp 300 300 25
  500 rigid bodies with 1500 atoms

thermo 1000
thermo_style custom step temp density press ke pe etotal


variable    mvol equal vol
variable    mden equal density
variable	mtmp equal temp
variable    mpre equal press

fix mydat all ave/time 1 4000 4000 v_mtmp v_mden v_mpre file statistics.dat ## every 1ps

run 4000000 ## 1ns

CITE-CITE-CITE-CITE-CITE-CITE-CITE-CITE-CITE-CITE-CITE-CITE-CITE

Your simulation uses code contributions which should be cited:

- GPU package (short-range, long-range and three-body potentials): doi:10.1016/j.cpc.2010.12.021, doi:10.1016/j.cpc.2011.10.012, doi:10.1016/j.cpc.2013.08.002, doi:10.1016/j.commatsci.2014.10.068, doi:10.1016/j.cpc.2016.10.020, doi:10.3233/APC200086

@Article{Brown11,
 author = {W. M. Brown and P. Wang and S. J. Plimpton and A. N. Tharrington},
 title = {Implementing Molecular Dynamics on Hybrid High Performance Computers---Short Range Forces},
 journal = {Comput.\ Phys.\ Commun.},
 year =    2011,
 volume =  182,
 pages =   {898--911},
 doi =     {10.1016/j.cpc.2010.12.021}
}

@Article{Brown12,
 author = {W. M. Brown and A. Kohlmeyer and S. J. Plimpton and A. N. Tharrington},
 title = {Implementing Molecular Dynamics on Hybrid High Performance Computers - Particle-Particle Particle-Mesh},
 journal = {Comput.\ Phys.\ Commun.},
 year =    2012,
 volume =  183,
 doi =     {10.1016/j.cpc.2011.10.012},
 pages =   {449--459}
}

@Article{Brown13,
 author = {W. M. Brown and Y. Masako},
 title = {Implementing Molecular Dynamics on Hybrid High Performance Computers---Three-Body Potentials},
 journal = {Comput.\ Phys.\ Commun.},
 year =    2013,
 volume =  184,
 pages =   {2785--2793},
 doi =     {10.1016/j.cpc.2013.08.002},
}

@Article{Trung15,
 author = {T. D. Nguyen and S. J. Plimpton},
 title = {Accelerating Dissipative Particle Dynamics Simulations for Soft Matter Systems},
 journal = {Comput.\ Mater.\ Sci.},
 year =    2015,
 doi =     {10.1016/j.commatsci.2014.10.068},
 volume =  100,
 pages =   {173--180}
}

@Article{Trung17,
 author = {T. D. Nguyen},
 title = {{GPU}-Accelerated {T}ersoff Potentials for Massively Parallel
    Molecular Dynamics Simulations},
 journal = {Comput.\ Phys.\ Commun.},
 year =    2017,
 doi =     {10.1016/j.cpc.2016.10.020},
 volume =  212,
 pages =   {113--122}
}

@inproceedings{Nikolskiy19,
 author = {V. Nikolskiy and V. Stegailov},
 title = {{GPU} Acceleration of Four-Site Water Models in {LAMMPS}},
 booktitle = {Proceedings of the International Conference on Parallel
    Computing (ParCo 2019), Prague, Czech Republic},
 doi =     {10.3233/APC200086},
 year =    2019
}

CITE-CITE-CITE-CITE-CITE-CITE-CITE-CITE-CITE-CITE-CITE-CITE-CITE

PPPM initialization ...
  using 12-bit tables for long-range coulomb (src/kspace.cpp:342)
  G vector (1/distance) = 0.16152872
  grid = 27 27 27
  stencil order = 5
  estimated absolute RMS force accuracy = 0.038726468
  estimated relative force accuracy = 0.00011662361
  using double precision FFTW3
  3d grid and FFT values/proc = 32768 19683
Generated 1 of 1 mixed pair_coeff terms from arithmetic mixing rule
Per MPI rank memory allocation (min/avg/max) = 10.39 | 10.39 | 10.39 Mbytes
   Step          Temp         Density         Press          KinEng         PotEng         TotEng    
         0   307.41471      0.01518627    -177.57695      762.70438      20819.173      21581.878    
      1000   315.07836      0.01518627     13.175563      781.71809     -19.033359      762.68473    
      2000   318.15454      0.01518627     6.4595782      789.35018     -24.902384      764.4478     
      3000   293.2758       0.01518627     4.9148841      727.62534     -29.761797      697.86354    
      4000   302.82678      0.01518627     9.3397387      751.3216      -35.783037      715.53856    
      5000   322.83037      0.01518627     16.684393      800.95106     -40.447447      760.50361    
      6000   304.98412      0.01518627     8.9312276      756.674       -44.489006      712.18499    
      7000   289.89109      0.01518627     8.1786774      719.22779     -45.937808      673.28998    
      8000   296.00762      0.01518627     7.79569        734.40305     -51.05176       683.35129    
      9000   291.2632       0.01518627     8.958666       722.63204     -50.427187      672.20485    
     10000   300.53818      0.01518627     9.1353493      745.64351     -52.987279      692.65623    
     11000   307.19916      0.01518627     9.0500711      762.16959     -55.536795      706.63279    
     12000   295.66546      0.01518627     9.394617       733.55415     -56.278464      677.27569    
     13000   297.99448      0.01518627     8.3736895      739.33251     -56.525616      682.80689    
     14000   305.81081      0.01518627     10.008494      758.72505     -58.177023      700.54803    
     15000   304.09476      0.01518627     3.4286793      754.46749     -59.059676      695.40782    
     16000   301.44292      0.01518627     8.1046815      747.8882      -58.268954      689.61925    
     17000   312.74456      0.01518627     12.794623      775.92786     -62.305297      713.62257    
     18000   302.78488      0.01518627     8.5332537      751.21764     -62.197853      689.01979    
     19000   281.75005      0.01518627     8.6014107      699.02963     -66.618129      632.41151    
     20000   303.58103      0.01518627     7.0316324      753.19291     -63.873276      689.31964    
     21000   299.20268      0.01518627     9.5348865      742.33011     -57.604691      684.72542    
     22000   296.6113       0.01518627     4.5716711      735.90082     -67.045975      668.85484    
     23000   298.36851      0.01518627     7.395634       740.2605      -70.388368      669.87213    
     24000   311.12407      0.01518627     8.4929144      771.9074      -71.813443      700.09395    
     25000   296.22891      0.01518627     6.6666261      734.9521      -74.99961       659.95249    
     26000   295.56255      0.01518627     7.4128495      733.29883     -75.533622      657.76521    
     27000   305.56788      0.01518627     7.5935939      758.12233     -79.974596      678.14774    
     28000   297.29378      0.01518627     8.2336227      737.59406     -77.286065      660.30799    
     29000   292.02974      0.01518627     13.030829      724.53384     -73.849005      650.68483    
     30000   307.83733      0.01518627     7.5926699      763.7529      -72.769707      690.98319    
     31000   304.0857       0.01518627     7.1496112      754.445       -77.677096      676.7679     
     32000   288.41064      0.01518627     7.7338147      715.55474     -77.608026      637.94672    
     33000   301.28096      0.01518627     10.109861      747.48638     -82.17742       665.30896    
     34000   309.00053      0.01518627     9.6594358      766.63884     -82.968331      683.67051    
     35000   295.68146      0.01518627     4.5976422      733.59384     -88.820518      644.77332    
     36000   286.38356      0.01518627     6.6209642      710.52551     -88.284951      622.24056    
     37000   303.12081      0.01518627     9.0744971      752.05109     -88.268313      663.78278    
     38000   299.22165      0.01518627     11.198557      742.37716     -94.111788      648.26538    
     39000   287.67446      0.01518627     4.4864475      713.72826     -96.102471      617.62579    
     40000   301.98353      0.01518627     20.09376       749.22947     -93.900603      655.32887    
     41000   310.89038      0.01518627     9.2484927      771.32759     -93.523144      677.80445    
     42000   303.55918      0.01518627     10.869155      753.1387      -97.222259      655.91645    
     43000   298.89013      0.01518627     3.4905371      741.55466     -98.707591      642.84707    
     44000   301.33954      0.01518627     8.1524125      747.6317      -97.267679      650.36402    
     45000   312.70767      0.01518627     3.7260068      775.83634     -97.412922      678.42342    
     46000   279.66482      0.01518627     8.4675232      693.85612     -98.215844      595.64028    
     47000   296.17454      0.01518627     9.9958528      734.8172      -94.312072      640.50513    
     48000   300.62399      0.01518627     7.9098142      745.8564      -97.034554      648.82185    
     49000   307.89269      0.01518627     10.563221      763.89026     -98.132141      665.75812    
     50000   299.33269      0.01518627     3.7957444      742.65265     -98.38674       644.26591    
     51000   278.29405      0.01518627     7.3532396      690.4552      -93.165587      597.28961    
     52000   298.93243      0.01518627     8.5800645      741.65959     -101.04178      640.61781    
     53000   315.97311      0.01518627     10.669459      783.93799     -95.561916      688.37607    
     54000   302.3922       0.01518627     8.2578705      750.24338     -95.81152       654.43186    
     55000   291.46354      0.01518627     5.8077075      723.12908     -103.92062      619.20846    
     56000   290.34438      0.01518627     6.5947069      720.3524      -110.20186      610.15054    
     57000   296.78249      0.01518627     8.2338057      736.32554     -103.33105      632.99449    
     58000   308.48272      0.01518627     7.5809293      765.35413     -102.50738      662.84675    
     59000   305.07167      0.01518627     8.5173677      756.89123     -102.98986      653.90136    
     60000   301.46415      0.01518627     6.091          747.94086     -101.66762      646.27324    
     61000   300.29633      0.01518627     7.2276724      745.04347     -103.19755      641.84592    
     62000   279.40355      0.01518627     9.3273344      693.2079      -99.58302       593.62488    
     63000   303.37293      0.01518627     7.9777782      752.67659     -103.58597      649.09063    
     64000   303.9499       0.01518627     6.6172093      754.10808     -106.18618      647.92191    
     65000   295.19506      0.01518627     11.383483      732.38707     -106.0946       626.29247    
     66000   285.76316      0.01518627     10.69037       708.98629     -104.8622       604.12408    
     67000   311.21067      0.01518627     6.9203529      772.12225     -103.47026      668.65198    
     68000   304.51894      0.01518627     1.8998117      755.5199      -103.52859      651.99131    
     69000   296.54899      0.01518627     3.5556293      735.74622     -101.18183      634.56439    
     70000   290.17923      0.01518627     9.3267255      719.94267     -103.35218      616.5905     
     71000   286.43418      0.01518627     6.6690597      710.6511      -104.74639      605.90471    
     72000   289.88801      0.01518627     8.1601067      719.22015     -100.9719       618.24825    
     73000   313.62861      0.01518627     3.8833421      778.12123     -100.44739      677.67383    
     74000   296.8722       0.01518627     10.150457      736.54811     -103.87625      632.67185    
     75000   292.24288      0.01518627     9.6811003      725.06264     -106.80539      618.25725    
     76000   310.30018      0.01518627    -8.4915947      769.86329     -103.48203      666.38127    
     77000   306.80751      0.01518627     9.0159669      761.19788     -107.58531      653.61257    
     78000   295.41604      0.01518627     9.0867537      732.93533     -107.97839      624.95694    
     79000   295.01424      0.01518627     11.591051      731.93846     -112.35576      619.5827     
     80000   299.69584      0.01518627     6.2742103      743.55365     -105.91392      637.63973    
     81000   312.70602      0.01518627    -0.12572062     775.83226     -108.21165      667.6206     
     82000   302.412        0.01518627     11.339228      750.2925      -107.02094      643.27156    
     83000   296.31903      0.01518627     13.850772      735.17569     -108.8673       626.30839    
     84000   291.66147      0.01518627     6.0059447      723.62016     -102.97189      620.64827    
     85000   307.11839      0.01518627     4.471896       761.96919     -105.00027      656.96892    
     86000   299.52371      0.01518627     12.027332      743.12659     -107.48038      635.6462     
     87000   304.8509       0.01518627     2.5598505      756.34348     -107.3846       648.95889    
     88000   309.12929      0.01518627     10.811136      766.95829     -106.44991      660.50838    
     89000   300.85567      0.01518627     23.587251      746.43121     -109.4581       636.97312    
     90000   296.1803       0.01518627     3.3959319      734.83149     -105.86345      628.96804    
     91000   311.24055      0.01518627    -3.5253981      772.19639     -106.79593      665.40045    
     92000   302.33498      0.01518627     10.27253       750.10143     -111.04702      639.05441    
     93000   286.62446      0.01518627     4.3095097      711.1232      -108.88719      602.23601    
     94000   295.86515      0.01518627    -9.8988819      734.04959     -115.83739      618.2122     
     95000   303.56746      0.01518627     7.5638506      753.15925     -114.15452      639.00473    
     96000   305.6598       0.01518627     6.6959829      758.35039     -114.3623       643.98809    
     97000   288.98034      0.01518627     10.785195      716.96818     -114.69862      602.26957    
     98000   293.65421      0.01518627    -7.148979       728.56418     -110.0374       618.52679    
     99000   305.13767      0.01518627     12.949085      757.05498     -110.89859      646.1564     
    100000   302.65288      0.01518627     9.6407857      750.89013     -109.83973      641.0504     
    101000   294.31608      0.01518627     5.5742055      730.20631     -111.34417      618.86214    
    102000   305.32698      0.01518627     4.2712191      757.52466     -113.70004      643.82462    
    103000   308.13308      0.01518627     8.5314811      764.48666     -113.78177      650.70488    
    104000   293.9193       0.01518627     8.0226747      729.22188     -110.0578       619.16408    
    105000   293.361        0.01518627     7.2686198      727.83672     -110.96145      616.87526    
    106000   303.06174      0.01518627     7.4495219      751.90454     -109.57956      642.32498    
    107000   301.48808      0.01518627     10.226723      748.00023     -109.8128       638.18744    
    108000   303.77672      0.01518627     7.3433564      753.67842     -110.84455      642.83387    
    109000   302.06964      0.01518627     6.7990052      749.44311     -110.32049      639.12262    
    110000   294.31722      0.01518627     8.2124214      730.20914     -106.72758      623.48156    
    111000   303.71983      0.01518627     8.7382082      753.53726     -104.83181      648.70545    
    112000   309.50009      0.01518627     13.162065      767.87826     -105.20785      662.67041    
    113000   289.60753      0.01518627     7.4321903      718.52427     -102.3162       616.20808    
    114000   279.87398      0.01518627    -1.539574       694.37507     -99.211996      595.16307    
    115000   301.08774      0.01518627     6.9015024      747.00699     -104.38399      642.623      
    116000   305.41471      0.01518627     5.4415212      757.74232     -103.52916      654.21316    
    117000   312.23274      0.01518627     8.2261005      774.65804     -101.42227      673.23577    
    118000   293.29796      0.01518627     8.0091608      727.68033     -101.57786      626.10247    
    119000   304.96182      0.01518627     5.5317233      756.61868     -99.493683      657.125      
    120000   298.19153      0.01518627     8.4422727      739.8214      -97.598367      642.22303    
    121000   286.6381       0.01518627     10.973626      711.15702     -92.700223      618.4568     
    122000   290.00557      0.01518627    -1.1229869      719.51181     -94.28471       625.2271     
    123000   314.55655      0.01518627     4.2785815      780.42347     -91.350992      689.07247    
    124000   309.40327      0.01518627     9.6285431      767.63805     -92.663782      674.97427    
    125000   295.05         0.01518627     9.3674687      732.02719     -96.872838      635.15436    
    126000   281.49077      0.01518627     6.3923032      698.38636     -96.087399      602.29896    
    127000   300.49287      0.01518627     6.3730387      745.53109     -96.189826      649.34127    
    128000   311.29536      0.01518627     8.1189418      772.33238     -99.120737      673.21164    
    129000   302.32172      0.01518627     8.2104895      750.06851     -102.80735      647.26116    
    130000   291.27595      0.01518627     8.1175051      722.66367     -101.54849      621.11518    
    131000   298.40112      0.01518627     9.133539       740.3414      -108.2909       632.0505     
    132000   312.36396      0.01518627     7.6402576      774.98358     -107.86957      667.11402    
    133000   293.62382      0.01518627     5.47312        728.48878     -100.70349      627.78529    
    134000   287.56859      0.01518627     11.827632      713.46559     -98.98847       614.47712    
    135000   307.62364      0.01518627     10.528617      763.22272     -99.709324      663.5134     
    136000   311.82306      0.01518627     8.9929295      773.6416      -99.205963      674.43564    
    137000   288.77896      0.01518627     5.8502796      716.46856     -106.07099      610.39757    
    138000   306.31734      0.01518627     7.3563065      759.98175     -104.6932       655.28856    
    139000   305.00975      0.01518627     8.8106741      756.73759     -107.60026      649.13734    
    140000   297.68744      0.01518627     7.2734117      738.57075     -108.30577      630.26498    
    141000   302.09282      0.01518627     7.3914475      749.50062     -113.11478      636.38584    
    142000   309.19847      0.01518627     6.8784722      767.12993     -111.00445      656.12548    
    143000   300.00075      0.01518627     8.013193       744.31014     -106.69661      637.61353    
    144000   307.83609      0.01518627     7.5207708      763.74982     -101.59951      662.15032    
    145000   312.44152      0.01518627     7.6277622      775.17602     -100.49113      674.68489    
    146000   284.93306      0.01518627     5.8206323      706.92679     -99.252465      607.67432    
    147000   298.56933      0.01518627     7.6387149      740.75873     -99.452036      641.3067     
    148000   309.37803      0.01518627     7.8131107      767.57541     -104.36723      663.20818    
    149000   308.86056      0.01518627     7.972362       766.29156     -98.277654      668.01391    
    150000   282.41347      0.01518627     6.5041404      700.6756      -96.656288      604.01931    
    151000   297.2076       0.01518627     8.4226897      737.38025     -102.88804      634.49221    
    152000   318.9          0.01518627     7.70528        791.1997      -98.121515      693.07818    
    153000   298.02125      0.01518627     9.3238718      739.39893     -99.03442       640.36451    
    154000   280.55564      0.01518627     2.4033784      696.06627     -100.25953      595.80674    
    155000   306.46398      0.01518627     7.5944572      760.34559     -97.918692      662.4269     
    156000   304.67698      0.01518627     10.241165      755.91198     -92.28311       663.62887    
    157000   283.9478       0.01518627     8.2625551      704.48232     -91.368906      613.11342    
    158000   304.89435      0.01518627     5.4640692      756.45129     -91.819102      664.63219    
    159000   307.02221      0.01518627     3.4623696      761.73057     -87.22042       674.51015    
    160000   307.45498      0.01518627     7.9271629      762.80429     -93.089065      669.71522    
    161000   285.03601      0.01518627     7.8157985      707.1822      -91.324334      615.85787    
    162000   306.02913      0.01518627     7.4262347      759.26672     -97.678867      661.58785    
    163000   304.79529      0.01518627     8.328406       756.20552     -98.036455      658.16906    
    164000   297.03052      0.01518627     7.3309402      736.9409      -98.973539      637.96736    
    165000   293.46707      0.01518627     7.9144756      728.09988     -99.831409      628.26847    
    166000   294.31835      0.01518627     7.768102       730.21194     -101.06146      629.15048    
    167000   313.11851      0.01518627     7.8624928      776.85566     -97.836636      679.01903    
    168000   306.0267       0.01518627     7.2501772      759.26068     -92.728905      666.53177    
    169000   288.98588      0.01518627     8.9442522      716.98195     -93.380332      623.60161    
    170000   295.43685      0.01518627     5.8292334      732.98696     -93.594215      639.39275    
    171000   304.80183      0.01518627     10.755652      756.22175     -90.628692      665.59306    
    172000   295.30386      0.01518627     5.6365998      732.65702     -98.29455       634.36247    
    173000   297.50223      0.01518627     5.2073793      738.11122     -99.76347       638.34775    
    174000   296.83227      0.01518627    -4.0872341      736.44904     -102.55092      633.89813    
    175000   308.42985      0.01518627     8.9558553      765.22297     -94.575358      670.64761    
    176000   309.22037      0.01518627     15.378866      767.18426     -94.4117        672.77256    
    177000   299.07732      0.01518627     5.357494       742.01907     -90.91203       651.10704    
    178000   316.18778      0.01518627     7.1464189      784.4706      -91.666127      692.80447    
    179000   298.41492      0.01518627     9.1671357      740.37563     -82.773253      657.60238    
    180000   298.45753      0.01518627     8.0580343      740.48136     -85.372323      655.10904    
    181000   306.61031      0.01518627     8.0924707      760.70862     -82.342108      678.36652    
    182000   308.73211      0.01518627     8.7982212      765.97289     -85.830469      680.14242    
    183000   289.35084      0.01518627     9.5502913      717.88741     -82.578467      635.30895    
    184000   288.93063      0.01518627     1.6892237      716.84485     -83.692771      633.15208    
    185000   314.05269      0.01518627    -3.5046247      779.17337     -81.869038      697.30434    
    186000   302.41236      0.01518627     10.945704      750.29341     -90.822881      659.47053    
    187000   284.56856      0.01518627     8.6756732      706.02244     -88.044038      617.9784     
    188000   306.67579      0.01518627     6.1729075      760.87108     -90.173789      670.69729    
    189000   299.27486      0.01518627     9.5283566      742.50918     -89.59173       652.91745    
    190000   289.23856      0.01518627     7.1232507      717.60885     -95.263959      622.34489    
    191000   306.49248      0.01518627     3.9210434      760.4163      -99.27988       661.13642    
    192000   314.45686      0.01518627     8.7418099      780.17615     -90.894282      689.28187    
    193000   292.56832      0.01518627     8.4107682      725.87006     -94.376742      631.49332    
    194000   303.72219      0.01518627     7.9142609      753.54313     -86.196766      667.34636    
    195000   316.44578      0.01518627     7.8569155      785.1107      -87.61408       697.49662    
    196000   316.97056      0.01518627     8.2750904      786.4127      -81.507096      704.9056     
    197000   289.67764      0.01518627     6.6986119      718.69821     -84.276498      634.42171    
    198000   292.65325      0.01518627     9.3397887      726.08078     -85.181873      640.8989     
    199000   316.00898      0.01518627     9.3733922      784.02699     -88.130816      695.89617    
    200000   299.20096      0.01518627     4.8882959      742.32582     -84.028124      658.2977     
    201000   290.35018      0.01518627     6.9347888      720.36681     -89.854914      630.51189    
    202000   308.66612      0.01518627     7.9781516      765.80916     -85.675961      680.1332     
    203000   298.19868      0.01518627     4.1162905      739.83915     -80.207775      659.63138    
    204000   288.79418      0.01518627     7.0837202      716.50632     -80.790835      635.71548    
    205000   313.03115      0.01518627     11.058398      776.6389      -82.840247      693.79866    
    206000   302.98112      0.01518627     6.4784714      751.70451     -81.848552      669.85596    
    207000   291.32173      0.01518627     7.2908898      722.77724     -85.855551      636.92169    
    208000   308.74326      0.01518627     7.9659823      766.00054     -91.752628      674.24791    
    209000   304.0165       0.01518627     9.6751429      754.27332     -89.114798      665.15853    
    210000   287.48883      0.01518627     9.0794334      713.26771     -76.898878      636.36884    
    211000   308.48304      0.01518627     4.8658362      765.35492     -80.458809      684.89611    
    212000   305.49634      0.01518627     8.1995694      757.94484     -79.736683      678.20816    
    213000   298.61957      0.01518627     7.5619976      740.88338     -77.337681      663.5457     
    214000   294.14302      0.01518627     10.34608       729.77693     -78.696887      651.08005    
    215000   297.32855      0.01518627     4.74912        737.68032     -77.36179       660.31853    
    216000   306.67492      0.01518627     4.9438398      760.86893     -75.527705      685.34122    
    217000   294.19729      0.01518627     12.568357      729.91158     -76.603709      653.30787    
    218000   285.67116      0.01518627    -0.042563413    708.75801     -80.613625      628.14439    
    219000   301.34975      0.01518627    -4.7596435      747.65705     -76.617712      671.03933    
    220000   305.13852      0.01518627     12.012878      757.05708     -65.253282      691.8038     
    221000   281.62274      0.01518627     10.798124      698.71378     -72.468883      626.2449     
    222000   301.41276      0.01518627     5.4939773      747.81337     -73.869295      673.94407    
    223000   305.48486      0.01518627     6.9493925      757.91637     -74.77201       683.14436    
    224000   290.23233      0.01518627     17.071725      720.07441     -72.573373      647.50104    
    225000   298.05043      0.01518627     5.2282048      739.47132     -72.69737       666.77395    
    226000   304.9581       0.01518627     6.9940583      756.60945     -74.605623      682.00383    
    227000   303.94972      0.01518627     11.098641      754.10763     -80.244999      673.86263    
    228000   291.08994      0.01518627     6.8944545      722.20216     -75.230482      646.97168    
    229000   312.18115      0.01518627     7.0213259      774.53004     -75.565708      698.96433    
    230000   313.21096      0.01518627     8.4659751      777.08503     -77.646099      699.43893    
    231000   292.27364      0.01518627     11.498722      725.13895     -77.639705      647.49925    
    232000   282.51147      0.01518627     6.1087395      700.91875     -74.014948      626.9038     
    233000   318.94812      0.01518627     5.8069915      791.31909     -78.321736      712.99735    
    234000   317.20492      0.01518627     8.3791015      786.99414     -70.451211      716.54293    
    235000   302.52175      0.01518627     8.9412973      750.56479     -69.005737      681.55906    
    236000   293.84798      0.01518627     7.7303257      729.04493     -73.8502        655.19473    
    237000   300.51193      0.01518627     7.7805367      745.57839     -74.166214      671.41218    
    238000   311.28209      0.01518627     8.3594315      772.29945     -73.500719      698.79873    
    239000   282.69843      0.01518627     6.3299881      701.3826      -76.986849      624.39575    
    240000   295.73703      0.01518627     7.2287709      733.73172     -78.673007      655.05872    
    241000   317.43865      0.01518627     7.5554875      787.57405     -75.442485      712.13157    
    242000   306.8928       0.01518627     4.5595023      761.40949     -73.648919      687.76057    
    243000   294.83553      0.01518627     7.1673635      731.49508     -70.495556      660.99952    
    244000   300.15616      0.01518627     10.278215      744.69571     -74.131497      670.56421    
    245000   305.42544      0.01518627     8.0731984      757.76893     -81.105246      676.66369    
    246000   305.21139      0.01518627     6.6832405      757.23786     -82.488186      674.74968    
    247000   299.85754      0.01518627     8.3084576      743.95482     -83.025852      660.92897    
    248000   290.29426      0.01518627     14.810554      720.22806     -77.517692      642.71037    
    249000   312.66689      0.01518627     7.8973158      775.73517     -84.209513      691.52566    
    250000   307.86231      0.01518627     7.1349517      763.81488     -80.70342       683.11146    
    251000   292.13769      0.01518627     8.4202081      724.80166     -71.379463      653.4222     
    252000   303.35245      0.01518627     8.4603121      752.62578     -71.124004      681.50178    
    253000   307.5498       0.01518627     5.3813136      763.03953     -76.387418      686.65211    
    254000   302.92928      0.01518627     6.0793561      751.5759      -78.184843      673.39106    
    255000   291.85802      0.01518627     7.2137102      724.10779     -79.687691      644.4201     
    256000   280.43661      0.01518627     8.7771286      695.77096     -74.330071      621.44089    
    257000   314.48579      0.01518627     9.1112801      780.24791     -71.206302      709.04161    
    258000   305.7538       0.01518627    -0.63439573     758.5836      -70.908587      687.67502    
    259000   291.52248      0.01518627     8.0740741      723.27532     -79.959556      643.31576    
    260000   288.73238      0.01518627     11.869864      716.35301     -74.790242      641.56276    
    261000   301.16784      0.01518627     15.869192      747.20572     -76.932545      670.27318    
    262000   312.96991      0.01518627     11.883948      776.48697     -76.416768      700.0702     
    263000   301.00254      0.01518627     3.7338276      746.7956      -77.10714       669.68846    
    264000   303.35034      0.01518627     2.03234        752.62056     -83.387769      669.23279    
    265000   304.13666      0.01518627     7.4237885      754.57145     -75.379922      679.19152    
    266000   296.09096      0.01518627     12.394563      734.60982     -83.893671      650.71615    
    267000   308.94855      0.01518627     18.975912      766.50986     -76.638273      689.87159    
    268000   297.19196      0.01518627     7.0005561      737.34146     -72.966548      664.37491    
    269000   306.06351      0.01518627     4.9521187      759.352       -71.167651      688.18435    
    270000   303.58483      0.01518627     5.2969472      753.20233     -69.854218      683.34811    
    271000   289.02527      0.01518627     7.423895       717.07966     -69.506762      647.5729     
    272000   301.60076      0.01518627     10.08307       748.27979     -67.3597        680.92009    
    273000   312.33718      0.01518627     6.8111662      774.91714     -65.912772      709.00437    
    274000   290.2069       0.01518627     8.5447243      720.01131     -71.591491      648.41982    
    275000   294.2995       0.01518627     9.6231854      730.16517     -74.221832      655.94334    
    276000   287.70284      0.01518627     4.0611171      713.79867     -70.37967       643.419      
    277000   298.94014      0.01518627     1.7577238      741.67873     -68.168753      673.50997    
    278000   308.38661      0.01518627     9.8206377      765.11569     -69.924283      695.1914     
    279000   312.72073      0.01518627     32.038642      775.86876     -69.347465      706.52129    
    280000   293.94924      0.01518627     0.25219954     729.29616     -66.026744      663.26942    
    281000   305.56537      0.01518627     2.1766009      758.11611     -64.927176      693.18893    
    282000   306.09619      0.01518627     13.839861      759.43307     -69.303433      690.12964    
    283000   303.0505       0.01518627     20.299505      751.87664     -72.439923      679.43672    
    284000   286.79409      0.01518627     8.4071927      711.54404     -70.180861      641.36318    
    285000   311.31626      0.01518627    -1.7842656      772.38421     -65.976147      706.40806    
    286000   308.86418      0.01518627     14.846418      766.30053     -68.357215      697.94332    
    287000   301.73145      0.01518627     5.3095571      748.60405     -65.253101      683.35095    
    288000   292.23624      0.01518627     0.64406694     725.04616     -57.631209      667.41495    
    289000   304.09347      0.01518627    -5.8547908      754.46428     -61.623379      692.8409     
    290000   302.7539       0.01518627     10.006314      751.14078     -59.767368      691.37341    
    291000   296.91735      0.01518627     14.955478      736.66012     -54.396559      682.26357    
    292000   286.24433      0.01518627     11.683867      710.18008     -58.33727       651.84281    
    293000   296.71146      0.01518627     2.6333321      736.14931     -56.76329       679.38602    
    294000   297.73812      0.01518627     10.48776       738.69648     -57.949668      680.74681    
    295000   293.10746      0.01518627     7.7632073      727.20769     -54.501072      672.70662    
    296000   313.36212      0.01518627     1.5610064      777.46005     -55.040679      722.41938    
    297000   311.55196      0.01518627     5.2420332      772.96901     -59.179596      713.78941    
    298000   293.42299      0.01518627     10.438897      727.99052     -54.463172      673.52735    
    299000   294.33309      0.01518627     4.6613275      730.2485      -57.613333      672.63517    
    300000   308.59454      0.01518627     7.763585       765.63157     -58.573066      707.0585     
    301000   294.87491      0.01518627     8.6686055      731.59278     -46.786282      684.8065     
    302000   297.01308      0.01518627     5.8094361      736.89763     -49.269224      687.62841    
    303000   301.34008      0.01518627     9.7024267      747.63305     -49.555838      698.07721    
    304000   290.08847      0.01518627     12.319393      719.71749     -53.443448      666.27404    
    305000   310.46124      0.01518627     8.2127978      770.26291     -53.806513      716.45639    
    306000   307.68392      0.01518627     9.4051454      763.37229     -55.107834      708.26446    
    307000   290.55126      0.01518627     8.8793295      720.86567     -53.853144      667.01253    
    308000   283.83411      0.01518627     6.1722534      704.20026     -55.775523      648.42474    
    309000   314.56101      0.01518627     8.233409       780.43454     -56.035038      724.3995     
    310000   306.16105      0.01518627     8.0857432      759.594       -51.218117      708.37588    
    311000   283.75383      0.01518627     7.8949104      704.00108     -49.816568      654.18451    
    312000   303.31103      0.01518627     4.4305108      752.52302     -47.545613      704.9774     
    313000   311.41848      0.01518627     10.22669       772.63784     -53.580527      719.05731    
    314000   290.38151      0.01518627     6.842104       720.44454     -55.323463      665.12108    
    315000   286.3513       0.01518627     10.579346      710.44548     -57.955147      652.49033    
    316000   300.49281      0.01518627     1.9950566      745.53095     -53.354591      692.17636    
    317000   320.11083      0.01518627     8.4526013      794.20379     -53.690065      740.51372    
    318000   302.10591      0.01518627     17.885679      749.53308     -51.989895      697.54318    
    319000   284.84862      0.01518627     6.5567182      706.71729     -50.744843      655.97244    
    320000   299.05323      0.01518627     5.2104819      741.95931     -54.749247      687.21006    
    321000   303.21293      0.01518627     10.140531      752.27963     -50.334707      701.94492    
    322000   294.75458      0.01518627     9.4622462      731.29423     -53.572401      677.72183    
    323000   285.77225      0.01518627     7.6535787      709.00883     -50.603911      658.40492    
    324000   306.88568      0.01518627     6.3005087      761.39183     -53.552031      707.8398     
    325000   303.54944      0.01518627     9.3302241      753.11454     -56.508756      696.60578    
    326000   296.55748      0.01518627     9.4804874      735.76729     -56.529186      679.2381     
    327000   286.30657      0.01518627     8.1236201      710.3345      -57.918419      652.41609    
    328000   299.72993      0.01518627     8.1480736      743.63822     -55.650239      687.98799    
    329000   300.09341      0.01518627     7.1266307      744.54002     -54.884011      689.65601    
    330000   297.55464      0.01518627     7.7534508      738.24127     -50.897478      687.3438     
    331000   294.88216      0.01518627     7.1677793      731.61077     -54.321441      677.28932    
    332000   300.42899      0.01518627     10.284313      745.37259     -52.357645      693.01495    
    333000   301.95883      0.01518627     11.859472      749.16819     -55.145052      694.02314    
    334000   313.87446      0.01518627     7.2288466      778.73118     -53.192918      725.53826    
    335000   298.60154      0.01518627     4.4165598      740.83864     -54.540459      686.29819    
    336000   282.95219      0.01518627     9.7317565      702.01217     -59.060412      642.95176    
    337000   295.94201      0.01518627     10.762398      734.24028     -60.43116       673.80912    
    338000   319.36451      0.01518627     5.7395633      792.35215     -60.484241      731.86791    
    339000   307.50491      0.01518627    -2.2721606      762.92817     -49.480274      713.4479     
    340000   295.70566      0.01518627     3.3730138      733.6539      -53.949208      679.7047     
    341000   284.48763      0.01518627     8.0503334      705.82166     -54.244698      651.57696    
    342000   305.78093      0.01518627     15.545515      758.65092     -57.606862      701.04405    
    343000   310.40385      0.01518627    -1.0546365      770.12052     -57.492478      712.62804    
    344000   294.23261      0.01518627     8.9394924      729.99921     -56.214729      673.78448    
    345000   308.60002      0.01518627     13.044029      765.64515     -55.409579      710.23557    
    346000   314.94135      0.01518627     2.6171297      781.37817     -54.529243      726.84892    
    347000   317.53751      0.01518627     2.6591542      787.81932     -57.846894      729.97242    
    348000   291.08116      0.01518627     2.7192964      722.18038     -54.955248      667.22513    
    349000   297.8893       0.01518627     7.5719456      739.07156     -55.997792      683.07376    
    350000   302.98889      0.01518627     8.4946425      751.72379     -52.443006      699.28078    
    351000   314.05428      0.01518627     8.1286742      779.17733     -47.295531      731.8818     
    352000   290.4115       0.01518627     4.9511002      720.51895     -45.669127      674.84982    
    353000   308.67657      0.01518627     9.9033069      765.83509     -40.332908      725.50218    
    354000   293.65328      0.01518627     1.6226602      728.56187     -44.385459      684.17642    
    355000   292.35523      0.01518627     13.409863      725.34138     -43.983014      681.35837    
    356000   307.56718      0.01518627    -1.2584434      763.08265     -44.905089      718.17757    
    357000   301.3815       0.01518627     1.1093599      747.73582     -45.886062      701.84976    
    358000   289.99274      0.01518627     18.915197      719.47998     -44.575692      674.90429    
    359000   298.0896       0.01518627     4.5179382      739.56851     -43.330759      696.23775    
    360000   305.88965      0.01518627     4.3614624      758.92065     -46.942981      711.97767    
    361000   288.63462      0.01518627     3.4176725      716.11046     -44.66638       671.44408    
    362000   299.64281      0.01518627     10.03945       743.42208     -43.928101      699.49398    
    363000   286.0249       0.01518627     0.87258847     709.63565     -46.355853      663.2798     
    364000   301.27782      0.01518627     11.112312      747.47857     -47.148058      700.33051    
    365000   312.52426      0.01518627     8.6479745      775.3813      -44.56129       730.82001    
    366000   293.04492      0.01518627     2.1839818      727.05253     -44.708095      682.34444    
    367000   289.58471      0.01518627     7.1837394      718.46765     -48.804766      669.66288    
    368000   311.86896      0.01518627     9.1771659      773.75549     -47.821572      725.93392    
    369000   301.55058      0.01518627     8.4373476      748.1553      -42.893131      705.26217    
    370000   300.15869      0.01518627     9.0922823      744.70198     -46.929012      697.77297    
    371000   310.19574      0.01518627     9.2998666      769.60418     -44.819669      724.78452    
    372000   312.59512      0.01518627     8.1115665      775.55712     -44.095981      731.46114    
    373000   295.1774       0.01518627     7.919254       732.34328     -48.779937      683.56334    
    374000   296.76816      0.01518627     7.9855039      736.28999     -48.25328       688.03671    
    375000   308.65445      0.01518627     8.2597131      765.78021     -46.68686       719.09335    
    376000   303.79515      0.01518627     8.2862638      753.72413     -49.051253      704.67288    
    377000   273.82586      0.01518627     7.8643512      679.36951     -42.21828       637.15123    
    378000   301.13078      0.01518627     8.4369208      747.11376     -42.798136      704.31562    
    379000   320.09357      0.01518627     7.8614626      794.16097     -38.698563      755.4624     
    380000   293.57674      0.01518627     8.0889997      728.37199     -35.926492      692.4455     
    381000   283.12199      0.01518627     7.8964004      702.43347     -38.26486       664.16861    
    382000   310.88495      0.01518627     9.1609336      771.31413     -42.909568      728.40456    
    383000   304.57351      0.01518627     3.4129987      755.65528     -38.814344      716.84093    
    384000   291.47651      0.01518627     7.7598631      723.16126     -36.497228      686.66403    
    385000   299.87501      0.01518627     7.2851183      743.99817     -42.714225      701.28394    
    386000   309.61942      0.01518627     8.2831804      768.17432     -40.716621      727.4577     
    387000   289.03529      0.01518627     6.9064523      717.10453     -42.349733      674.7548     
    388000   289.53757      0.01518627     8.880222       718.35069     -42.086204      676.26449    
    389000   288.53513      0.01518627     7.3557955      715.86362     -43.080936      672.78268    
    390000   299.50007      0.01518627     9.7162612      743.06793     -40.816813      702.25112    
    391000   308.07427      0.01518627     7.4898414      764.34075     -44.038545      720.3022     
    392000   285.60195      0.01518627     5.9213164      708.58631     -39.05877       669.52754    
    393000   288.60372      0.01518627     8.7748976      716.03378     -39.594665      676.43912    
    394000   297.02194      0.01518627     9.0287483      736.91961     -43.436765      693.48285    
    395000   310.92457      0.01518627     7.082482       771.41243     -43.420926      727.99151    
    396000   290.74473      0.01518627     8.179585       721.34568     -45.303174      676.04251    
    397000   297.01326      0.01518627     9.1297611      736.89809     -38.348388      698.5497     
    398000   320.34801      0.01518627     8.6477082      794.79225     -45.987491      748.80476    
    399000   300.37264      0.01518627     9.0130043      745.23281     -48.774083      696.45872    
    400000   285.23887      0.01518627     8.2381127      707.68551     -48.294905      659.3906     
    401000   302.91968      0.01518627     8.6164924      751.55208     -44.167068      707.38501    
    402000   310.04161      0.01518627     7.9169392      769.22178     -47.54025       721.68153    
    403000   296.23956      0.01518627     7.5148863      734.9785      -46.903181      688.07532    
    404000   297.53734      0.01518627     8.6149391      738.19835     -47.406967      690.79138    
    405000   300.29352      0.01518627     8.3239261      745.03651     -42.152619      702.88389    
    406000   301.63636      0.01518627     3.7115547      748.36813     -49.122999      699.24513    
    407000   299.59085      0.01518627     10.215765      743.29314     -47.979941      695.3132     
    408000   299.71546      0.01518627     10.2853        743.60232     -50.409151      693.19317    
    409000   307.44771      0.01518627     4.2926221      762.78624     -49.785862      713.00038    
    410000   299.35642      0.01518627     5.5150294      742.71152     -46.532262      696.17926    
    411000   298.557        0.01518627     7.8931248      740.72815     -48.768676      691.95947    
    412000   288.83786      0.01518627     8.0925818      716.6147      -48.793694      667.821      
    413000   299.64728      0.01518627     3.7028396      743.43317     -42.772237      700.66093    
    414000   306.47166      0.01518627     8.6630577      760.36464     -39.623024      720.74162    
    415000   291.1944       0.01518627     12.169838      722.46134     -42.539992      679.92135    
    416000   290.6438       0.01518627     7.8926649      721.09529     -40.880202      680.21509    
    417000   310.5338       0.01518627     8.9880466      770.44291     -40.857775      729.58513    
    418000   310.41451      0.01518627     3.6921104      770.14697     -41.350771      728.79619    
    419000   296.97897      0.01518627     7.7977877      736.81301     -44.378659      692.43435    
    420000   297.05531      0.01518627     8.0143271      737.00241     -42.919538      694.08287    
    421000   313.00424      0.01518627     8.2647317      776.57214     -39.972067      736.60007    
    422000   302.28198      0.01518627     8.1636839      749.96992     -42.231981      707.73794    
    423000   287.48632      0.01518627     3.7433437      713.2615      -44.889623      668.37187    
    424000   292.64725      0.01518627     6.8020802      726.0659      -43.533917      682.53199    
    425000   297.33352      0.01518627     10.13518       737.69266     -47.974823      689.71784    
    426000   303.28367      0.01518627     12.695429      752.45516     -49.593213      702.86194    
    427000   302.43517      0.01518627     6.0653134      750.34998     -49.386512      700.96347    
    428000   297.33898      0.01518627     4.4380899      737.70622     -47.796103      689.91011    
    429000   303.85632      0.01518627     14.606666      753.8759      -43.027927      710.84798    
    430000   308.50106      0.01518627     7.8304207      765.39963     -45.142151      720.25748    
    431000   299.87178      0.01518627     1.9124138      743.99016     -45.331978      698.65818    
    432000   293.35735      0.01518627     11.172929      727.82767     -42.540894      685.28678    
    433000   300.60535      0.01518627     13.368915      745.81016     -42.716081      703.09408    
    434000   314.43473      0.01518627     4.5857936      780.12123     -40.031524      740.08971    
    435000   294.45558      0.01518627     4.0977712      730.55241     -38.129328      692.42308    
    436000   289.41856      0.01518627     3.7412857      718.05541     -42.169361      675.88605    
    437000   302.76217      0.01518627     15.23926       751.16129     -40.173272      710.98802    
    438000   291.39441      0.01518627    -7.4909095      722.95756     -38.903528      684.05403    
    439000   290.19921      0.01518627     12.60815       719.99223     -42.051888      677.94035    
    440000   305.02777      0.01518627     8.0826393      756.78231     -37.378901      719.40341    
    441000   308.03668      0.01518627     15.034792      764.2475      -37.143833      727.10367    
    442000   298.71483      0.01518627     7.3384868      741.11972     -38.808144      702.31158    
    443000   294.06812      0.01518627     8.5308684      729.5911      -42.686334      686.90477    
    444000   302.24241      0.01518627     8.2753707      749.87174     -46.201424      703.67032    
    445000   297.96763      0.01518627     8.2984649      739.26591     -41.955862      697.31005    
    446000   299.81157      0.01518627     15.689341      743.84078     -40.132857      703.70792    
    447000   304.40042      0.01518627     4.6210516      755.22583     -39.460506      715.76532    
    448000   310.74771      0.01518627     6.2752954      770.97362     -38.154947      732.81868    
    449000   292.58523      0.01518627     10.368123      725.91202     -39.802131      686.10989    
    450000   303.80299      0.01518627     11.525507      753.7436      -41.949314      711.79428    
    451000   302.26131      0.01518627     2.3005227      749.91865     -37.68195       712.2367     
    452000   305.28214      0.01518627     18.927711      757.4134      -35.573938      721.83946    
    453000   310.73259      0.01518627     16.920127      770.93612     -38.135457      732.80066    
    454000   291.5902       0.01518627     3.4422069      723.44333     -32.975525      690.46781    
    455000   285.0764       0.01518627    -1.3335367      707.28242     -37.220184      670.06223    
    456000   314.6199       0.01518627     10.389397      780.58065     -37.509984      743.07067    
    457000   310.19972      0.01518627     12.547821      769.61405     -35.295735      734.31831    
    458000   293.66056      0.01518627     4.1007022      728.57994     -35.0229        693.55704    
    459000   297.48379      0.01518627     15.668213      738.0655      -30.836852      707.22864    
    460000   314.63659      0.01518627     8.6976039      780.62206     -31.233981      749.38807    
    461000   301.1633       0.01518627    -0.18435521     747.19445     -37.063064      710.13138    
    462000   291.99844      0.01518627     1.7771038      724.45618     -34.628007      689.82817    
    463000   304.79084      0.01518627     26.3458        756.19449     -35.978101      720.21638    
    464000   300.48646      0.01518627     9.1160704      745.51519     -37.458927      708.05626    
    465000   302.58705      0.01518627     5.0879149      750.7268      -34.384696      716.34211    
    466000   301.12068      0.01518627    -11.902849      747.08871     -34.310293      712.77842    
    467000   305.52865      0.01518627     7.2638898      758.02501     -37.096401      720.92861    
    468000   302.64863      0.01518627     11.714451      750.87959     -32.994827      717.88477    
    469000   299.43848      0.01518627     18.437255      742.91511     -33.056083      709.85903    
    470000   294.8228       0.01518627     5.8298515      731.4635      -37.962823      693.50068    
    471000   284.87531      0.01518627     1.8693123      706.78349     -35.675658      671.10783    
    472000   308.03142      0.01518627     10.479512      764.23445     -38.635939      725.59851    
    473000   313.47664      0.01518627     9.7748698      777.74418     -41.056431      736.68775    
    474000   288.65414      0.01518627     7.2413747      716.15887     -35.768548      680.39032    
    475000   309.06154      0.01518627     13.000063      766.79019     -35.888478      730.90171    
    476000   304.44269      0.01518627     7.8205867      755.3307      -34.707303      720.6234     
    477000   294.03261      0.01518627     7.2874935      729.503       -43.732205      685.7708     
    478000   291.4851       0.01518627     6.6956277      723.18258     -43.511549      679.67103    
    479000   308.13751      0.01518627     8.7161969      764.49765     -40.427331      724.07032    
    480000   300.35519      0.01518627     8.9774961      745.18951     -37.110056      708.07946    
    481000   300.22083      0.01518627     8.2828291      744.85616     -40.913118      703.94304    
    482000   294.85023      0.01518627     7.2263473      731.53155     -40.225259      691.30629    
    483000   296.4562       0.01518627     9.550482       735.51602     -36.493356      699.02266    
    484000   312.92902      0.01518627     8.7621681      776.38553     -36.843387      739.54215    
    485000   294.1461       0.01518627     7.8749979      729.78459     -36.301011      693.48358    
    486000   296.1999       0.01518627     6.048349       734.88012     -36.472111      698.40801    
    487000   304.92982      0.01518627     9.4314316      756.5393      -36.544982      719.99432    
    488000   299.12991      0.01518627     9.9283758      742.14955     -43.525619      698.62393    
    489000   289.40391      0.01518627     9.204789       718.01907     -34.704921      683.31415    
    490000   291.26029      0.01518627     7.3784455      722.62481     -37.51818       685.10663    
    491000   301.86373      0.01518627     4.437612       748.93222     -39.686994      709.24523    
    492000   295.62089      0.01518627     7.1348995      733.44358     -38.848898      694.59468    
    493000   319.87752      0.01518627     11.279649      793.62495     -42.926221      750.69873    
    494000   299.78026      0.01518627     12.363134      743.76308     -47.295889      696.4672     
    495000   281.84863      0.01518627     3.3153515      699.27423     -44.046649      655.22758    
    496000   306.19862      0.01518627     6.9374277      759.68721     -44.176856      715.51035    
    497000   315.12733      0.01518627     10.114778      781.83959     -44.95837       736.88122    
    498000   292.19402      0.01518627     9.1034078      724.94141     -42.537361      682.40405    
    499000   288.36311      0.01518627     7.7860932      715.43683     -37.657798      677.77903    
    500000   296.57877      0.01518627     5.419292       735.82011     -39.361739      696.45838    
    501000   312.27934      0.01518627    -0.61270977     774.77366     -42.374708      732.39895    
    502000   306.91321      0.01518627     11.077035      761.46014     -38.322505      723.13764    
    503000   288.77389      0.01518627     5.8243378      716.45597     -33.648252      682.80772    
    504000   303.36794      0.01518627     6.9745508      752.66422     -33.584839      719.07938    
    505000   306.14586      0.01518627     10.207275      759.55631     -32.804024      726.75229    
    506000   299.94878      0.01518627     9.2002602      744.18119     -32.547196      711.634      
    507000   292.61741      0.01518627     3.4737183      725.99186     -32.677302      693.31456    
    508000   305.40598      0.01518627     7.2733902      757.72066     -36.69809       721.02257    
    509000   316.61742      0.01518627     10.864537      785.53655     -36.020114      749.51644    
    510000   295.15186      0.01518627     10.958712      732.27989     -30.543651      701.73624    
    511000   284.59817      0.01518627     7.9034256      706.0959      -28.562015      677.53389    
    512000   318.71247      0.01518627     8.308585       790.73443     -36.228137      754.5063     
    513000   313.08341      0.01518627     9.0547235      776.76856     -35.939478      740.82908    
    514000   297.06613      0.01518627     8.1170844      737.02926     -36.030332      700.99893    
    515000   291.72264      0.01518627     8.5323102      723.77191     -31.480473      692.29144    
    516000   314.54652      0.01518627     7.299232       780.39859     -31.546041      748.85255    
    517000   301.02569      0.01518627     10.070453      746.85303     -32.28426       714.56877    
    518000   292.52681      0.01518627     11.059503      725.76708     -35.657524      690.10955    
    519000   300.81269      0.01518627     4.6069649      746.32458     -38.595746      707.72884    
    520000   299.74736      0.01518627     6.0278998      743.68147     -34.215571      709.4659     
    521000   296.57296      0.01518627     8.4361305      735.80569     -38.692065      697.11363    
    522000   300.13748      0.01518627     8.4065355      744.64935     -42.132405      702.51695    
    523000   306.8148       0.01518627     7.5409938      761.21598     -42.231461      718.98452    
    524000   304.64911      0.01518627     6.7034299      755.84283     -38.987758      716.85507    
    525000   302.2082       0.01518627     6.8178191      749.78686     -38.211414      711.57545    
    526000   299.86216      0.01518627     11.995996      743.96628     -40.296258      703.67003    
    527000   307.55753      0.01518627     4.5927481      763.0587      -46.366813      716.69189    
    528000   299.07911      0.01518627     5.0130658      742.02351     -42.015148      700.00836    
    529000   304.14533      0.01518627     12.478477      754.59295     -34.853207      719.73974    
    530000   297.66183      0.01518627     16.665341      738.5072      -37.320281      701.18692    
    531000   287.32685      0.01518627     2.6529402      712.86584     -34.020237      678.8456     
    532000   301.45986      0.01518627     8.3999533      747.93023     -29.686208      718.24402    
    533000   295.36491      0.01518627     16.125576      732.80849     -25.959284      706.84921    
    534000   294.4686       0.01518627     10.513403      730.58472     -33.787279      696.79744    
    535000   306.27912      0.01518627     2.1464492      759.88693     -38.455386      721.43154    
    536000   302.72136      0.01518627     7.2306605      751.06004     -35.905947      715.1541     
    537000   295.77452      0.01518627     8.0495635      733.82474     -38.876374      694.94837    
    538000   292.98841      0.01518627     7.7969849      726.91233     -28.515289      698.39704    
    539000   302.51659      0.01518627     7.8474396      750.55201     -37.173898      713.37811    
    540000   295.32926      0.01518627     7.2672355      732.72004     -33.261219      699.45882    
    541000   296.66057      0.01518627     7.9493184      736.02305     -33.157532      702.86552    
    542000   303.37938      0.01518627     7.2254565      752.69262     -34.23883       718.45379    
    543000   304.08166      0.01518627     8.0351733      754.43498     -34.755181      719.6798     
    544000   294.14674      0.01518627     7.5478894      729.78617     -33.767732      696.01844    
    545000   294.76094      0.01518627     5.6773907      731.31002     -30.510397      700.79962    
    546000   302.49125      0.01518627     8.1604214      750.48913     -35.908095      714.58104    
    547000   304.28794      0.01518627     8.3273733      754.94676     -32.394158      722.5526     
    548000   295.50769      0.01518627     8.2391229      733.16273     -31.082536      702.0802     
    549000   295.74914      0.01518627     4.7683432      733.76177     -27.305465      706.45631    
    550000   296.88575      0.01518627     6.0092512      736.58174     -32.696881      703.88486    
    551000   318.26554      0.01518627     4.7278861      789.62557     -36.547896      753.07767    
    552000   295.1768       0.01518627     11.361837      732.34179     -36.940624      695.40116    
    553000   288.53332      0.01518627     2.6767527      715.85912     -35.088153      680.77097    
    554000   310.00473      0.01518627     6.7422367      769.13029     -36.34323       732.78706    
    555000   296.53379      0.01518627     13.443964      735.70851     -33.645344      702.06316    
    556000   298.40377      0.01518627     6.6930562      740.34797     -34.505678      705.8423     
    557000   300.3276       0.01518627     7.4483615      745.12105     -35.617179      709.50387    
    558000   310.76721      0.01518627     10.133143      771.02202     -39.795159      731.22687    
    559000   304.07867      0.01518627     7.9698763      754.42757     -37.919647      716.50792    
    560000   294.37537      0.01518627     8.7505655      730.3534      -38.586904      691.76649    
    561000   301.9702       0.01518627     7.8376392      749.1964      -38.474216      710.72218    
    562000   288.43278      0.01518627     7.615554       715.60969     -41.277266      674.33242    
    563000   290.5196       0.01518627     7.5790209      720.78713     -40.536938      680.25019    
    564000   304.61956      0.01518627     9.2611163      755.76953     -42.774767      712.99477    
    565000   303.19523      0.01518627     7.97768        752.23573     -41.229073      711.00665    
    566000   297.94434      0.01518627     6.3380181      739.20812     -39.883027      699.32509    
    567000   287.59585      0.01518627     8.1008427      713.53324     -34.079472      679.45377    
    568000   312.84712      0.01518627     8.8100307      776.18232     -33.555463      742.62686    
    569000   322.61243      0.01518627     8.6078157      800.41034     -34.741508      765.66884    
    570000   299.03547      0.01518627     7.4412562      741.91524     -36.618625      705.29662    
    571000   288.93804      0.01518627     7.5841546      716.86324     -35.155063      681.70817    
    572000   290.4206       0.01518627     7.268873       720.54152     -33.294166      687.24735    
    573000   301.0406       0.01518627     8.5550564      746.89002     -35.474552      711.41547    
    574000   307.78044      0.01518627     9.5155808      763.61176     -32.986682      730.62507    
    575000   286.8655       0.01518627     8.2573734      711.72123     -37.157997      674.56323    
    576000   293.64332      0.01518627     6.2681419      728.53717     -32.957584      695.57959    
    577000   316.63054      0.01518627     8.2005911      785.56909     -35.406837      750.16226    
    578000   305.15993      0.01518627     7.9058917      757.11019     -33.283754      723.82644    
    579000   289.6203       0.01518627     7.5851184      718.55595     -32.869576      685.68637    
    580000   293.23511      0.01518627     6.6073118      727.5244      -31.095376      696.42902    
    581000   305.70901      0.01518627     8.0666782      758.47248     -30.756616      727.71587    
    582000   310.43754      0.01518627     9.5712538      770.20409     -30.391511      739.81258    
    583000   294.03564      0.01518627     8.5047766      729.51052     -32.695838      696.81468    
    584000   296.00023      0.01518627     3.380451       734.38474     -29.937503      704.44723    
    585000   304.93562      0.01518627     12.061309      756.55369     -26.632088      729.9216     
    586000   306.43489      0.01518627     12.463955      760.2734      -29.05809       731.21531    
    587000   290.01512      0.01518627     7.1550075      719.53552     -30.105374      689.43014    
    588000   317.54216      0.01518627     3.1856743      787.83085     -30.856702      756.97414    
    589000   310.21543      0.01518627     9.0009507      769.65303     -30.192775      739.46026    
    590000   299.87019      0.01518627     17.842367      743.9862      -25.092745      718.89346    
    591000   288.58615      0.01518627     5.0434376      715.99019     -27.395286      688.5949     
    592000   311.4061       0.01518627     6.2510105      772.60711     -26.623399      745.98371    
    593000   319.9422       0.01518627     15.42022       793.78543     -24.74912       769.03631    
    594000   292.26801      0.01518627     7.0533128      725.12499     -23.455495      701.6695     
    595000   289.56765      0.01518627     5.5298633      718.42531     -29.070952      689.35436    
    596000   308.80918      0.01518627     4.4399576      766.16409     -29.688111      736.47598    
    597000   308.96579      0.01518627     9.1546737      766.55265     -35.835425      730.71723    
    598000   304.95656      0.01518627     8.726089       756.60562     -36.685741      719.91988    
    599000   286.11298      0.01518627     8.3829406      709.85418     -34.342675      675.51151    
    600000   288.98264      0.01518627     7.6522877      716.97388     -29.721935      687.25195    
    601000   302.40665      0.01518627     7.1195452      750.27924     -32.198309      718.08093    
    602000   319.54232      0.01518627     8.979625       792.79331     -28.211949      764.58136    
    603000   293.66445      0.01518627     8.3950061      728.5896      -31.751095      696.8385     
    604000   294.46717      0.01518627     7.7110968      730.58116     -31.590345      698.99082    
    605000   300.6803       0.01518627     9.6661477      745.9961      -29.455684      716.54042    
    606000   313.29803      0.01518627     9.6722281      777.30105     -29.187972      748.11308    
    607000   302.08269      0.01518627     5.2277536      749.47548     -28.199857      721.27562    
    608000   290.42152      0.01518627     10.447826      720.5438      -29.880733      690.66306    
    609000   312.34603      0.01518627     7.4090756      774.9391      -27.462684      747.47641    
    610000   308.67781      0.01518627     5.7328092      765.83816     -33.699316      732.13885    
    611000   291.87961      0.01518627     7.2756837      724.16136     -31.848917      692.31245    
    612000   303.62311      0.01518627     13.68207       753.29731     -35.036894      718.26042    
    613000   291.45446      0.01518627     8.1499194      723.10656     -32.793326      690.31324    
    614000   288.08544      0.01518627     6.3939544      714.74793     -31.412242      683.33569    
    615000   303.80314      0.01518627     12.536159      753.74396     -31.419218      722.32474    
    616000   303.3567       0.01518627     9.4062949      752.63633     -31.628717      721.00761    
    617000   296.33229      0.01518627    -1.4575358      735.20858     -34.031849      701.17673    
    618000   300.48844      0.01518627     8.7698064      745.5201      -34.494933      711.02517    
    619000   302.13385      0.01518627     9.6456915      749.60241     -35.198801      714.40361    
    620000   300.94758      0.01518627     8.3477385      746.65925     -34.940599      711.71865    
    621000   285.52415      0.01518627     0.8573081      708.39329     -31.895651      676.49764    
    622000   290.98117      0.01518627     6.4097383      721.9323      -35.593159      686.33915    
    623000   299.98455      0.01518627     13.500355      744.26995     -36.326013      707.94394    
    624000   313.32392      0.01518627     7.2956573      777.36529     -30.106369      747.25892    
    625000   289.41545      0.01518627     6.1653043      718.04771     -34.462209      683.5855     
    626000   290.87326      0.01518627     12.15714       721.66456     -27.804531      693.86003    
    627000   314.00754      0.01518627     13.929257      779.06135     -33.24853       745.81282    
    628000   310.96327      0.01518627     15.119595      771.50844     -27.478262      744.03018    
    629000   299.57417      0.01518627     5.2643476      743.25177     -31.49223       711.75954    
    630000   290.12772      0.01518627     8.7000019      719.81487     -30.86955       688.94532    
    631000   313.26159      0.01518627     8.5323702      777.21064     -27.769877      749.44076    
    632000   309.72861      0.01518627     6.6394292      768.44523     -29.11931       739.32592    
    633000   294.4148       0.01518627     5.9586464      730.45122     -29.093883      701.35734    
    634000   288.69719      0.01518627     3.7126497      716.26568     -29.888765      686.37692    
    635000   298.69695      0.01518627     8.6621843      741.07536     -30.685315      710.39004    
    636000   288.00921      0.01518627     7.2102734      714.55878     -31.966995      682.59178    
    637000   300.84644      0.01518627     9.7788927      746.40832     -30.419226      715.98909    
    638000   313.06119      0.01518627     12.07756       776.71344     -27.719514      748.99393    
    639000   305.42374      0.01518627     5.2146953      757.76472     -27.208644      730.55607    
    640000   304.56321      0.01518627     9.2848579      755.62972     -27.559658      728.07006    
    641000   311.01564      0.01518627     11.55748       771.63839     -31.943199      739.69519    
    642000   297.19571      0.01518627     4.9708237      737.35074     -32.836534      704.5142     
    643000   296.06889      0.01518627     14.103132      734.55508     -32.498999      702.05608    
    644000   313.37218      0.01518627     8.0820248      777.48501     -31.236867      746.24814    
    645000   301.61574      0.01518627     8.0646887      748.31698     -30.684737      717.63224    
    646000   291.60468      0.01518627     4.6666222      723.47925     -32.55662       690.92263    
    647000   292.22151      0.01518627     18.366546      725.00963     -34.871942      690.13769    
    648000   306.70541      0.01518627     7.9309584      760.94458     -32.328827      728.61576    
    649000   305.03573      0.01518627     7.3259909      756.80205     -33.085333      723.71672    
    650000   303.13879      0.01518627     19.957213      752.0957      -29.381771      722.71393    
    651000   306.53384      0.01518627     12.846294      760.51891     -27.309206      733.20971    
    652000   291.06923      0.01518627     5.1457391      722.15078     -31.944006      690.20677    
    653000   292.59193      0.01518627    -1.9486222      725.92864     -34.276044      691.65259    
    654000   301.9296       0.01518627     16.271916      749.09567     -32.883491      716.21217    
    655000   314.86026      0.01518627     7.5445892      781.17699     -36.179677      744.99732    
    656000   295.13641      0.01518627     3.4414192      732.24157     -30.61222       701.62935    
    657000   297.00423      0.01518627     17.204255      736.87568     -27.611526      709.26415    
    658000   314.12847      0.01518627     8.316627       779.3614      -27.378233      751.98317    
    659000   297.59882      0.01518627     7.6770412      738.35087     -27.344657      711.00622    
    660000   294.49201      0.01518627     10.763029      730.64279     -25.244346      705.39844    
    661000   305.29957      0.01518627     12.936872      757.45666     -28.785351      728.67131    
    662000   310.43751      0.01518627     8.3756841      770.20401     -35.27621       734.9278     
    663000   299.53092      0.01518627     8.3077123      743.14446     -33.345036      709.79943    
    664000   288.09112      0.01518627     8.5574516      714.76201     -31.065288      683.69673    
    665000   308.26375      0.01518627     7.3815725      764.81087     -31.025284      733.78558    
    666000   308.66166      0.01518627     9.6441845      765.7981      -31.300852      734.49724    
    667000   296.62989      0.01518627     8.3037028      735.94694     -28.676468      707.27047    
    668000   292.20714      0.01518627     6.7023398      724.97397     -28.819044      696.15493    
    669000   290.66458      0.01518627     6.0880197      721.14683     -29.710798      691.43604    
    670000   311.73545      0.01518627     8.0504663      773.42424     -28.541528      744.88271    
    671000   312.71119      0.01518627     9.6223168      775.84508     -27.871178      747.9739     
    672000   302.00908      0.01518627     10.454278      749.29284     -31.424806      717.86803    
    673000   292.09491      0.01518627     10.49229       724.69551     -32.996981      691.69853    
    674000   301.34745      0.01518627     7.7898199      747.65132     -31.919025      715.7323     
    675000   307.53727      0.01518627     1.4574353      763.00845     -32.764128      730.24432    
    676000   298.9107       0.01518627     8.8879903      741.6057      -35.66088       705.94482    
    677000   296.66525      0.01518627     9.1952939      736.03466     -26.566532      709.46812    
    678000   316.35582      0.01518627    -2.3945473      784.8875      -28.24006       756.64744    
    679000   295.2568       0.01518627     11.089563      732.54026     -24.819773      707.72049    
    680000   294.11534      0.01518627     6.5275466      729.70828     -25.528429      704.17985    
    681000   308.57146      0.01518627     5.1394388      765.57429     -28.130617      737.44367    
    682000   302.74775      0.01518627     6.9673719      751.1255      -27.951443      723.17406    
    683000   293.34519      0.01518627     14.937397      727.79751     -26.016252      701.78126    
    684000   292.73186      0.01518627     6.6755686      726.27582     -26.942097      699.33373    
    685000   305.72462      0.01518627     6.711599       758.51122     -24.298984      734.21223    
    686000   317.27693      0.01518627     11.11754       787.1728      -23.51893       763.65387    
    687000   301.42066      0.01518627     13.609716      747.83298     -23.738843      724.09414    
    688000   293.09766      0.01518627     7.0183027      727.18337     -25.019363      702.16401    
    689000   308.56566      0.01518627    -2.862522       765.55991     -24.541854      741.01805    
    690000   310.34531      0.01518627     10.964972      769.97526     -23.121181      746.85408    
    691000   296.33773      0.01518627     9.9818323      735.22207     -25.677579      709.54449    
    692000   291.5017       0.01518627     7.3578429      723.22374     -25.942435      697.28131    
    693000   298.7579       0.01518627     7.6451875      741.22658     -23.111118      718.11546    
    694000   308.74575      0.01518627     8.6769234      766.00671     -27.699034      738.30767    
    695000   290.99574      0.01518627     9.6167459      721.96846     -24.358546      697.60991    
    696000   295.19836      0.01518627     7.8443809      732.39527     -24.249507      708.14576    
    697000   306.14061      0.01518627     7.5280267      759.5433      -27.041668      732.50163    
    698000   319.01175      0.01518627     9.0338248      791.47695     -28.549335      762.92761    
    699000   307.81792      0.01518627     9.4397613      763.70476     -28.648359      735.0564     
    700000   296.8047       0.01518627     8.1699331      736.38064     -28.603096      707.77754    
    701000   299.55029      0.01518627     7.1651664      743.19254     -30.093539      713.099      
    702000   301.39434      0.01518627     8.0690536      747.76766     -28.976362      718.7913     
    703000   299.07031      0.01518627     7.7740078      742.00167     -29.812153      712.18952    
    704000   303.216        0.01518627     14.886446      752.28726     -27.047663      725.2396     
    705000   304.07472      0.01518627     8.2982991      754.41777     -29.563832      724.85393    
    706000   297.77068      0.01518627     6.0799528      738.77727     -30.208369      708.5689     
    707000   296.81703      0.01518627     15.958025      736.41124     -27.693326      708.71791    
    708000   307.8551       0.01518627     11.826535      763.79698     -31.145116      732.65187    
    709000   288.87924      0.01518627     1.9784035      716.71735     -29.54382       687.17353    
    710000   301.35955      0.01518627     0.57154781     747.68134     -29.910531      717.77081    
    711000   304.82526      0.01518627     8.8327089      756.27988     -30.860487      725.41939    
    712000   295.5227       0.01518627     11.301198      733.19996     -32.622605      700.57736    
    713000   287.74936      0.01518627     4.9392024      713.91409     -33.366105      680.54799    
    714000   301.72485      0.01518627     4.1998055      748.58767     -32.961021      715.62665    
    715000   313.4694       0.01518627     11.759109      777.72622     -34.754167      742.97205    
    716000   301.34186      0.01518627     10.766981      747.63745     -31.086323      716.55113    
    717000   295.78547      0.01518627     7.9529397      733.85189     -39.994703      693.85719    
    718000   308.81264      0.01518627     5.4551473      766.17268     -35.546802      730.62588    
    719000   307.87885      0.01518627     10.067903      763.85591     -32.213962      731.64195    
    720000   281.90865      0.01518627     10.772483      699.42313     -34.117814      665.30532    
    721000   294.4456       0.01518627     7.8884059      730.52766     -33.537226      696.99044    
    722000   308.39547      0.01518627     5.2138826      765.13767     -29.012227      736.12544    
    723000   297.70732      0.01518627     7.7444807      738.62006     -25.813259      712.8068     
    724000   301.09004      0.01518627     9.8915343      747.01269     -29.056762      717.95593    
[...]
   3823000   294.79919      0.01518627     5.8957127      731.40492     -26.573796      704.83112    
   3824000   307.20892      0.01518627     9.6323628      762.19381     -28.530616      733.66319    
   3825000   301.81693      0.01518627     12.969839      748.81613     -26.079738      722.73639    
   3826000   304.83637      0.01518627    -2.8876033      756.30743     -28.439112      727.86832    
   3827000   300.26155      0.01518627     7.4533108      744.95719     -27.283682      717.67351    
   3828000   303.838        0.01518627     10.587681      753.83045     -30.088093      723.74236    
   3829000   303.49678      0.01518627     9.1071153      752.98388     -26.199388      726.78449    
   3830000   298.93413      0.01518627     6.7465955      741.66382     -27.120094      714.54372    
   3831000   296.72337      0.01518627     3.5852295      736.17885     -23.480921      712.69793    
   3832000   296.81707      0.01518627     8.0390605      736.41134     -24.17331       712.23803    
   3833000   294.60349      0.01518627     8.8957587      730.91939     -23.014315      707.90507    
   3834000   301.10735      0.01518627     8.4535041      747.05564     -22.166784      724.88885    
   3835000   306.32301      0.01518627     8.8225072      759.99584     -24.238188      735.75765    
   3836000   285.66627      0.01518627     8.5969863      708.74589     -23.254175      685.49171    
   3837000   294.30774      0.01518627     8.4863179      730.18562     -25.465589      704.72003    
   3838000   308.84833      0.01518627     8.381264       766.26123     -26.026084      740.23515    
   3839000   301.85768      0.01518627     7.5481864      748.91724     -23.848426      725.06881    
   3840000   286.97717      0.01518627     7.4438332      711.99826     -22.899979      689.09828    
   3841000   300.78435      0.01518627     7.015829       746.25425     -23.281275      722.97298    
   3842000   309.03828      0.01518627     9.1450415      766.73249     -28.561835      738.17066    
   3843000   300.23898      0.01518627     10.604403      744.90119     -25.079893      719.8213     
   3844000   295.48993      0.01518627     8.1615272      733.11865     -25.719228      707.39942    
   3845000   289.1552       0.01518627     7.9870122      717.40201     -21.724253      695.67776    
   3846000   293.28764      0.01518627     9.4340126      727.65473     -20.910759      706.74397    
   3847000   312.52976      0.01518627     8.4173553      775.39494     -22.707907      752.68704    
   3848000   299.61914      0.01518627     8.5459498      743.36334     -19.723409      723.63993    
   3849000   293.97312      0.01518627     7.7930589      729.3554      -22.140538      707.21486    
   3850000   317.46672      0.01518627     4.3322138      787.64369     -20.394846      767.24884    
   3851000   310.4757       0.01518627     8.960874       770.29876     -23.456         746.84276    
   3852000   292.26602      0.01518627     7.4653815      725.12006     -22.079509      703.04055    
   3853000   297.78817      0.01518627     7.9652419      738.82065     -26.417606      712.40305    
   3854000   308.96352      0.01518627     8.8880323      766.547       -23.063616      743.48339    
   3855000   297.39278      0.01518627     5.945252       737.83969     -25.063255      712.77644    
   3856000   291.90133      0.01518627     7.2823367      724.21525     -20.148537      704.06672    
   3857000   294.60786      0.01518627     6.7549961      730.93022     -21.541824      709.38839    
   3858000   326.57345      0.01518627     7.4193194      810.23772     -23.278096      786.95963    
   3859000   314.13871      0.01518627     9.605852       779.3868      -22.754924      756.63187    
   3860000   291.65992      0.01518627     9.3016235      723.61631     -20.96888       702.64742    
   3861000   293.06509      0.01518627     6.5984539      727.10258     -21.450465      705.65211    
   3862000   314.00682      0.01518627     8.2754522      779.05958     -22.703191      756.35639    
   3863000   322.84501      0.01518627     8.6104381      800.98737     -26.556174      774.4312     
   3864000   287.03661      0.01518627     8.6748815      712.14574     -23.04509       689.10065    
   3865000   292.32965      0.01518627     7.3237394      725.27793     -23.556738      701.72119    
   3866000   313.47003      0.01518627     7.4136828      777.72779     -27.120822      750.60697    
   3867000   304.9599       0.01518627     9.0584053      756.61392     -24.215869      732.39805    
   3868000   293.72478      0.01518627     9.5752966      728.73927     -25.373294      703.36598    
   3869000   287.77351      0.01518627     10.528166      713.974       -27.847822      686.12618    
   3870000   285.17992      0.01518627     7.4234307      707.53924     -26.50171       681.03753    
   3871000   304.48827      0.01518627     5.9015554      755.44379     -25.670292      729.7735     
   3872000   319.28227      0.01518627     11.3582        792.14811     -31.000854      761.14726    
   3873000   291.07019      0.01518627     15.20623       722.15317     -26.882629      695.27054    
   3874000   292.16669      0.01518627     2.2433849      724.87362     -29.581801      695.29182    
   3875000   314.96595      0.01518627     0.099666909    781.43919     -24.25962       757.17957    
   3876000   314.23433      0.01518627     6.4401251      779.62402     -24.707776      754.91625    
   3877000   294.62408      0.01518627     11.754767      730.97046     -24.799125      706.17134    
   3878000   296.46101      0.01518627     4.9570547      735.52794     -24.429528      711.09841    
   3879000   309.38516      0.01518627     6.2654623      767.5931      -24.668305      742.92479    
   3880000   311.75048      0.01518627     7.8362024      773.46153     -24.46802       748.99351    
   3881000   311.50591      0.01518627     12.919243      772.85475     -27.960472      744.89428    
   3882000   291.52304      0.01518627     7.7104592      723.2767      -26.778114      696.49859    
   3883000   302.73302      0.01518627     7.0317378      751.08896     -25.0375        726.05146    
   3884000   308.93026      0.01518627     6.0024875      766.46448     -21.547511      744.91697    
   3885000   296.08778      0.01518627     12.662803      734.60193     -26.253055      708.34888    
   3886000   296.21692      0.01518627     2.4011787      734.92233     -24.396029      710.52631    
   3887000   309.06779      0.01518627     7.9662778      766.80572     -24.899391      741.90633    
   3888000   286.53672      0.01518627     10.143031      710.9055      -26.64162       684.26388    
   3889000   308.60721      0.01518627     5.8411437      765.663       -22.1848        743.4782     
   3890000   311.30727      0.01518627     10.635257      772.36192     -17.861674      754.50025    
   3891000   296.97667      0.01518627     10.161116      736.8073      -18.827491      717.97981    
   3892000   297.55948      0.01518627     7.3763978      738.25328     -19.298668      718.95462    
   3893000   300.64729      0.01518627     7.9899035      745.9142      -20.027332      725.88687    
   3894000   307.39786      0.01518627     8.2379393      762.66256     -21.086912      741.57565    
   3895000   292.13007      0.01518627     7.3491964      724.78275     -15.782583      709.00017    
   3896000   298.38383      0.01518627     8.7720301      740.29851     -17.736609      722.5619     
   3897000   306.30525      0.01518627     8.1054675      759.95176     -19.471518      740.48024    
   3898000   310.94385      0.01518627     6.9286515      771.46026     -18.829094      752.63116    
   3899000   297.36045      0.01518627     7.2214086      737.75948     -18.959964      718.79952    
   3900000   297.21413      0.01518627     7.7136831      737.39644     -21.403101      715.99334    
   3901000   299.93229      0.01518627     16.145312      744.14028     -16.792116      727.34816    
   3902000   309.3833       0.01518627     4.8420162      767.58851     -20.798008      746.7905     
   3903000   298.64077      0.01518627     6.3998924      740.93599     -21.682682      719.25331    
   3904000   296.32257      0.01518627     13.91674       735.18446     -26.690792      708.49367    
   3905000   298.71768      0.01518627     5.7617438      741.1268      -22.17296       718.95384    
   3906000   302.16516      0.01518627    -2.1489603      749.68008     -23.773338      725.90674    
   3907000   300.54238      0.01518627     18.321419      745.65394     -25.679197      719.97474    
   3908000   296.87233      0.01518627     12.09          736.54844     -28.651001      707.89744    
   3909000   293.93076      0.01518627    -1.2131071      729.25031     -24.743345      704.50697    
   3910000   296.24015      0.01518627     10.137954      734.97998     -22.35366       712.62632    
   3911000   323.98239      0.01518627     10.964595      803.80925     -24.933444      778.8758     
   3912000   303.34061      0.01518627     6.6066591      752.59642     -24.645283      727.95114    
   3913000   289.54291      0.01518627     5.4165053      718.36394     -24.258265      694.10568    
   3914000   307.14688      0.01518627     8.5590674      762.03987     -26.473264      735.56661    
   3915000   322.85553      0.01518627     10.12142       801.01346     -26.845633      774.16783    
   3916000   293.35047      0.01518627     6.9834322      727.81059     -23.933782      703.87681    
   3917000   277.97446      0.01518627     8.4285441      689.6623      -24.963686      664.69861    
   3918000   308.43518      0.01518627     8.7120674      765.23618     -27.398014      737.83817    
   3919000   307.63748      0.01518627     4.569892       763.25707     -26.35757       736.8995     
   3920000   286.01197      0.01518627     7.1712919      709.60359     -24.590766      685.01282    
   3921000   302.78325      0.01518627     10.5037        751.21359     -25.791954      725.42163    
   3922000   311.20814      0.01518627     6.7561904      772.11597     -26.476348      745.63962    
   3923000   281.49363      0.01518627     7.6341813      698.39345     -25.967635      672.42581    
   3924000   296.26082      0.01518627     7.9476629      735.03126     -26.759035      708.27223    
   3925000   323.07567      0.01518627     8.4353996      801.55963     -23.484554      778.07508    
   3926000   300.64559      0.01518627     7.3177721      745.90998     -22.825742      723.08424    
   3927000   296.07374      0.01518627     8.8788149      734.56712     -22.020379      712.54674    
   3928000   305.38157      0.01518627     10.010895      757.66009     -27.229566      730.43052    
   3929000   301.49849      0.01518627     7.2906438      748.02607     -24.690015      723.33605    
   3930000   305.77885      0.01518627     5.3524436      758.64576     -26.616229      732.02953    
   3931000   296.95177      0.01518627     8.8544834      736.74551     -25.807486      710.93803    
   3932000   293.61292      0.01518627     12.737397      728.46174     -26.555902      701.90584    
   3933000   307.23952      0.01518627     7.748922       762.26971     -26.157857      736.11185    
   3934000   298.07326      0.01518627     7.1169517      739.52796     -31.506282      708.02168    
   3935000   292.91978      0.01518627     8.2515162      726.74204     -28.431851      698.31019    
   3936000   296.93304      0.01518627     8.2068369      736.69907     -30.33171       706.36736    
   3937000   301.42961      0.01518627     8.3786014      747.85517     -33.231248      714.62393    
   3938000   304.19238      0.01518627     8.7148279      754.70968     -34.294552      720.41513    
   3939000   301.70471      0.01518627     7.6533136      748.53769     -31.325776      717.21192    
   3940000   294.55049      0.01518627     6.7668558      730.78788     -29.407511      701.38037    
   3941000   280.4043       0.01518627     7.2231467      695.69079     -27.013692      668.6771     
   3942000   304.82099      0.01518627     11.0002        756.26929     -27.706708      728.56258    
   3943000   303.35035      0.01518627     7.9789604      752.62058     -26.631042      725.98954    
   3944000   298.78597      0.01518627     0.44775511     741.29623     -26.771124      714.5251     
   3945000   283.59882      0.01518627     9.5651826      703.61648     -30.584703      673.03178    
   3946000   313.35113      0.01518627     8.8992959      777.43279     -30.245612      747.18718    
   3947000   305.96423      0.01518627     7.9619614      759.10568     -31.668182      727.4375     
   3948000   296.30818      0.01518627     3.8227656      735.14877     -26.488861      708.65991    
   3949000   301.7124       0.01518627     6.1210368      748.55679     -33.770739      714.78605    
   3950000   301.61355      0.01518627     8.472597       748.31154     -28.286998      720.02454    
   3951000   306.50165      0.01518627     8.4597613      760.43903     -29.086891      731.35214    
   3952000   304.26051      0.01518627     8.9436987      754.8787      -25.735448      729.14326    
   3953000   298.72133      0.01518627     5.0360877      741.13585     -21.976599      719.15925    
   3954000   297.08265      0.01518627     8.8698976      737.07024     -25.213778      711.85646    
   3955000   296.24973      0.01518627     12.040216      735.00374     -21.899993      713.10375    
   3956000   309.11458      0.01518627     10.82816       766.9218      -23.542511      743.37929    
   3957000   301.77602      0.01518627     7.0436766      748.71462     -27.200736      721.51388    
   3958000   297.83533      0.01518627     5.8222572      738.93767     -22.916075      716.02159    
   3959000   296.61126      0.01518627     8.5907324      735.90071     -22.678031      713.22267    
   3960000   301.23314      0.01518627     8.2310015      747.36773     -21.69783       725.6699     
   3961000   322.90242      0.01518627     8.5710901      801.12981     -26.785185      774.34463    
   3962000   292.10735      0.01518627     7.8412884      724.72638     -26.51525       698.21113    
   3963000   287.4556       0.01518627     7.8768448      713.18526     -24.739196      688.44606    
   3964000   309.0417       0.01518627     8.7479312      766.74097     -25.07745       741.66351    
   3965000   307.67558      0.01518627     8.3052399      763.35159     -27.714641      735.63695    
   3966000   301.11353      0.01518627     7.5085689      747.07096     -26.149052      720.92191    
   3967000   282.48463      0.01518627     8.7539498      700.85216     -25.500525      675.35163    
   3968000   305.60811      0.01518627     10.077728      758.22216     -23.603728      734.61843    
   3969000   298.10278      0.01518627     7.5780605      739.60123     -21.00289       718.59834    
   3970000   306.39759      0.01518627     7.3176568      760.18086     -23.458036      736.72282    
   3971000   290.65141      0.01518627     7.869545       721.11416     -27.17948       693.93468    
   3972000   303.86283      0.01518627     8.2667114      753.89207     -27.025694      726.86637    
   3973000   299.52087      0.01518627     9.8530789      743.11954     -20.397824      722.72171    
   3974000   308.95872      0.01518627     7.9745396      766.53511     -25.148494      741.38662    
   3975000   303.15403      0.01518627     7.2343581      752.1335      -26.026311      726.10719    
   3976000   286.83207      0.01518627     9.5901819      711.63826     -25.897197      685.74107    
   3977000   301.98159      0.01518627     8.3560598      749.22464     -27.746356      721.47829    
   3978000   302.09131      0.01518627     6.1234981      749.49686     -22.792092      726.70477    
   3979000   302.53686      0.01518627     7.8692559      750.60229     -26.740864      723.86142    
   3980000   291.54005      0.01518627     8.5476539      723.31891     -24.331712      698.98719    
   3981000   304.66938      0.01518627     8.7143515      755.89314     -25.760026      730.13312    
   3982000   293.1757       0.01518627     8.2703424      727.37698     -23.098425      704.27856    
   3983000   296.66341      0.01518627     8.0088156      736.03009     -22.963766      713.06633    
   3984000   300.69471      0.01518627     8.3505253      746.03187     -20.983998      725.04787    
   3985000   307.42661      0.01518627     9.1007632      762.73389     -28.262191      734.4717     
   3986000   300.7484       0.01518627     7.4392899      746.16506     -29.409379      716.75568    
   3987000   293.79787      0.01518627     8.3169074      728.92061     -24.525059      704.39555    
   3988000   305.4041       0.01518627     8.3090489      757.71598     -24.814075      732.90191    
   3989000   304.22711      0.01518627     8.8155323      754.79583     -23.174824      731.62101    
   3990000   312.57173      0.01518627     8.3627785      775.49907     -25.157956      750.34111    
   3991000   285.71662      0.01518627     7.4749091      708.87082     -22.044128      686.82669    
   3992000   293.99476      0.01518627     8.0440535      729.40911     -20.968194      708.44092    
   3993000   314.45901      0.01518627     9.4911701      780.18147     -24.568853      755.61262    
   3994000   299.39545      0.01518627     7.3418907      742.80835     -21.145819      721.66254    
   3995000   302.88707      0.01518627     9.9798613      751.47118     -23.395507      728.07567    
   3996000   303.50665      0.01518627     7.5931706      753.00836     -21.636574      731.37179    
   3997000   288.37336      0.01518627     5.8856665      715.46226     -21.669165      693.7931     
   3998000   288.08545      0.01518627     8.5608049      714.74795     -17.192541      697.55541    
   3999000   296.6969       0.01518627     10.97955       736.11319     -17.544667      718.56852    
   4000000   317.32016      0.01518627     14.117423      787.28007     -20.94765       766.33242    
Loop time of 7118.64 on 1 procs for 4000000 steps with 1500 atoms

Performance: 12.137 ns/day, 1.977 hours/ns, 561.905 timesteps/s, 842.858 katom-step/s
100.0% CPU use with 1 MPI tasks x 1 OpenMP threads

MPI task timing breakdown:
Section |  min time  |  avg time  |  max time  |%varavg| %total
---------------------------------------------------------------
Pair    | 698.86     | 698.86     | 698.86     |   0.0 |  9.82
Bond    | 94.127     | 94.127     | 94.127     |   0.0 |  1.32
Kspace  | 5782.8     | 5782.8     | 5782.8     |   0.0 | 81.23
Neigh   | 0.030542   | 0.030542   | 0.030542   |   0.0 |  0.00
Comm    | 21.189     | 21.189     | 21.189     |   0.0 |  0.30
Output  | 0.096889   | 0.096889   | 0.096889   |   0.0 |  0.00
Modify  | 507.85     | 507.85     | 507.85     |   0.0 |  7.13
Other   |            | 13.71      |            |       |  0.19

Nlocal:           1500 ave        1500 max        1500 min
Histogram: 1 0 0 0 0 0 0 0 0 0
Nghost:           1157 ave        1157 max        1157 min
Histogram: 1 0 0 0 0 0 0 0 0 0
Neighs:              0 ave           0 max           0 min
Histogram: 1 0 0 0 0 0 0 0 0 0

Total # of neighbors = 0
Ave neighs/atom = 0
Ave special neighs/atom = 2
Neighbor list builds = 16856
Dangerous builds = 0
write_data	last_conf.data pair ij
System init for write_data ...
PPPM initialization ...
  using 12-bit tables for long-range coulomb (src/kspace.cpp:342)
  G vector (1/distance) = 0.16152872
  grid = 27 27 27
  stencil order = 5
  estimated absolute RMS force accuracy = 0.038726468
  estimated relative force accuracy = 0.00011662361
  using double precision FFTW3
  3d grid and FFT values/proc = 32768 19683
Generated 1 of 1 mixed pair_coeff terms from arithmetic mixing rule
Total wall time: 1:58:38
