LAMMPS data file via write_data, version 29 Aug 2024, timestep = 0, units = real

1500 atoms
2 atom types
1000 bonds
1 bond types
500 angles
1 angle types

0 271 xlo xhi
0 271 ylo yhi
0 271 zlo zhi

Masses

1 12.0107
2 15.9994

PairIJ Coeffs # lj/cut/coul/long/gpu

1 1 0.053649 2.8 12
1 2 0.0917684 2.925 12
2 2 0.156973 3.05 12

Bond Coeffs # harmonic

1 0 1.16

Angle Coeffs # harmonic

1 0 180

Atoms # full

1 1 1 0.7 19.966377949792136 76.91420215643672 26.995643232015727 0 0 0
2 1 2 -0.35 18.95871720554992 77.15188818207028 26.47245571521917 0 0 0
3 1 2 -0.35 20.974038694034352 76.67651613080315 27.518830748812285 0 0 0
4 2 1 0.7 61.775800488319156 64.87880718003903 185.11227491596355 0 0 0
5 2 2 -0.35 62.123120344448736 65.37937427085124 184.1251571392348 0 0 0
6 2 2 -0.35 61.428480632189576 64.37824008922682 186.0993926926923 0 0 0
7 3 1 0.7 102.00451259920584 43.843254852501325 24.584305989828103 0 0 0
8 3 2 -0.35 101.54190374425286 42.77949163766482 24.583373209152068 0 0 0
9 3 2 -0.35 102.46712145415881 44.90701806733783 24.585238770504137 0 0 0
10 4 1 0.7 184.43077104093078 29.96888492348086 169.04890894286748 0 0 0
11 4 2 -0.35 183.34571172317177 30.16792886163202 169.40755610600925 0 0 0
12 4 2 -0.35 185.51583035868978 29.7698409853297 168.69026177972572 0 0 0
13 5 1 0.7 41.01260277396655 145.81482205577885 56.71429147511454 0 0 0
14 5 2 -0.35 40.839943998922124 146.09980050529907 57.82540633448292 0 0 0
15 5 2 -0.35 41.185261549010974 145.52984360625862 55.603176615746165 0 0 0
16 6 1 0.7 90.09682225021386 180.29155934429335 109.23789953824036 0 0 0
17 6 2 -0.35 89.00934806582444 180.4651189894836 108.8733766338187 0 0 0
18 6 2 -0.35 91.18429643460328 180.11799969910308 109.60242244266202 0 0 0
19 7 1 0.7 207.37753920554067 63.3014275223489 232.0923681180423 0 0 0
20 7 2 -0.35 206.35616660597552 63.56410363859623 231.60925397955043 0 0 0
21 7 2 -0.35 208.39891180510583 63.038751406101575 232.57548225653414 0 0 0
22 8 1 0.7 2.4309599368977173 207.14365943993613 197.48420700639682 0 0 0
23 8 2 -0.35 1.956066537168014 208.1610917217595 197.77559645506787 0 0 0
24 8 2 -0.35 2.9058533366274206 206.12622715811275 197.19281755772576 0 0 0
25 9 1 0.7 180.06715651139018 131.69948693490562 216.27691495897105 0 0 0
26 9 2 -0.35 179.7263995083414 132.41150551005933 215.42690659812436 0 0 0
27 9 2 -0.35 180.40791351443897 130.98746835975192 217.12692331981773 0 0 0
28 10 1 0.7 43.109715426391794 161.98717136680483 52.389161888691206 0 0 0
29 10 2 -0.35 43.116294736366136 161.02762939258758 53.04095626761412 0 0 0
30 10 2 -0.35 43.10313611641745 162.94671334102208 51.73736750976829 0 0 0
31 11 1 0.7 25.64386323310615 106.409358815015 93.09360395702235 0 0 0
32 11 2 -0.35 25.249452261553603 106.38018073616733 94.1841032120582 0 0 0
33 11 2 -0.35 26.038274204658695 106.43853689386266 92.0031047019865 0 0 0
34 12 1 0.7 141.20170567473477 30.0672752671257 196.69541458165992 0 0 0
35 12 2 -0.35 140.28236689610802 30.75068355840729 196.87808728766888 0 0 0
36 12 2 -0.35 142.12104445336152 29.383866975844114 196.51274187565096 0 0 0
37 13 1 0.7 201.83287395808514 98.1126135369356 214.69571527638274 0 0 0
38 13 2 -0.35 201.91784413490728 96.96177097892712 214.57764124991064 0 0 0
39 13 2 -0.35 201.747903781263 99.26345609494408 214.81378930285484 0 0 0
40 14 1 0.7 25.886650164558855 121.92931574067534 235.00965353055375 0 0 0
41 14 2 -0.35 25.185630759049797 121.58848379493084 235.86872592439477 0 0 0
42 14 2 -0.35 26.587669570067913 122.27014768641983 234.15058113671273 0 0 0
43 15 1 0.7 253.2468880169312 265.44690056259134 164.05775547263107 0 0 0
44 15 2 -0.35 252.46025093971738 265.45301553075154 163.20525050729836 0 0 0
45 15 2 -0.35 254.033525094145 265.44078559443113 164.91026043796379 0 0 0
46 16 1 0.7 164.6962285105587 55.5125769602659 217.88097118906722 0 0 0
47 16 2 -0.35 163.5467012069378 55.36240163687036 217.84054408834137 0 0 0
48 16 2 -0.35 165.84575581417963 55.66275228366145 217.92139828979307 0 0 0
49 17 1 0.7 173.4827746527655 35.993589029644426 72.25082123384384 0 0 0
50 17 2 -0.35 172.51104818278822 36.56527779948836 72.52380405011583 0 0 0
51 17 2 -0.35 174.45450112274278 35.42190025980049 71.97783841757185 0 0 0
52 18 1 0.7 239.55247721334567 182.48452470101628 110.40664998041777 0 0 0
53 18 2 -0.35 238.7368386764572 183.10631015446123 109.86469368418466 0 0 0
54 18 2 -0.35 240.36811575023413 181.86273924757134 110.94860627665088 0 0 0
55 19 1 0.7 67.5662208812154 95.47435058722009 46.41031940812725 0 0 0
56 19 2 -0.35 67.38648024270742 95.78596918897469 45.30751065321584 0 0 0
57 19 2 -0.35 67.74596151972338 95.16273198546548 47.51312816303866 0 0 0
58 20 1 0.7 80.23829239478255 68.98027911036287 13.551007868978665 0 0 0
59 20 2 -0.35 81.15875152121343 68.91558723393334 14.253980100076117 0 0 0
60 20 2 -0.35 79.31783326835166 69.0449709867924 12.848035637881214 0 0 0
61 21 1 0.7 111.78925392440951 269.9907075506592 109.82180392873558 0 0 0
62 21 2 -0.35 112.59889059553856 269.2622370656254 110.22107728521924 0 0 0
63 21 2 -0.35 110.97961725328045 270.71917803569295 109.42253057225192 0 0 0
64 22 1 0.7 265.0586302588036 142.3987597112538 94.95446704279372 0 0 0
65 22 2 -0.35 264.1333252462738 141.71438630932033 94.80940264153267 0 0 0
66 22 2 -0.35 265.9839352713334 143.08313311318727 95.09953144405478 0 0 0
67 23 1 0.7 251.72758823434245 204.5754545934384 122.66535191920835 0 0 0
68 23 2 -0.35 252.49022697958893 205.17516613382358 122.02948384124112 0 0 0
69 23 2 -0.35 250.96494948909597 203.9757430530532 123.30121999717558 0 0 0
70 24 1 0.7 139.5697061347634 243.05100696862257 175.27412163944643 0 0 0
71 24 2 -0.35 138.75026841960346 243.79088378294588 175.6300768762393 0 0 0
72 24 2 -0.35 140.38914384992336 242.31113015429926 174.91816640265358 0 0 0
73 25 1 0.7 62.16239417584724 58.358913464638825 89.25860018481436 0 0 0
74 25 2 -0.35 61.11857350891905 57.8755472060067 89.1089490060366 0 0 0
75 25 2 -0.35 63.20621484277543 58.84227972327095 89.40825136359211 0 0 0
76 26 1 0.7 184.29330617482464 158.59688027743107 252.76682278363353 0 0 0
77 26 2 -0.35 183.21224003140725 158.89378860245304 252.4689277684196 0 0 0
78 26 2 -0.35 185.37437231824202 158.2999719524091 253.06471779884745 0 0 0
79 27 1 0.7 55.99052452854371 120.74575123411871 125.84099183317319 0 0 0
80 27 2 -0.35 55.143839907479624 120.6715146616457 125.05155273877703 0 0 0
81 27 2 -0.35 56.837209149607794 120.81998780659173 126.63043092756935 0 0 0
82 28 1 0.7 125.5497401419793 108.48256624605627 249.4908974675885 0 0 0
83 28 2 -0.35 124.71944341267552 109.0371185584726 250.08138800443152 0 0 0
84 28 2 -0.35 126.38003687128308 107.92801393363993 248.90040693074548 0 0 0
85 29 1 0.7 10.513737759792123 12.390528826224863 119.6179823612878 0 0 0
86 29 2 -0.35 9.354365084950578 12.41532265040155 119.64696972255882 0 0 0
87 29 2 -0.35 11.673110434633669 12.365735002048176 119.58899500001678 0 0 0
88 30 1 0.7 141.42954616408306 65.38237974437996 247.6563637939544 0 0 0
89 30 2 -0.35 140.50972067474675 65.43141405640843 246.95129875765554 0 0 0
90 30 2 -0.35 142.34937165341938 65.33334543235149 248.36142883025326 0 0 0
91 31 1 0.7 71.50628499198066 192.13186021900356 195.1747007929602 0 0 0
92 31 2 -0.35 71.81846513361462 191.1463182066256 194.64853494362424 0 0 0
93 31 2 -0.35 71.1941048503467 193.1174022313815 195.70086664229618 0 0 0
94 32 1 0.7 117.19622728237707 88.99193491134417 38.45005496146626 0 0 0
95 32 2 -0.35 116.40485600791297 88.14448016316788 38.416114487890916 0 0 0
96 32 2 -0.35 117.98759855684116 89.83938965952046 38.4839954350416 0 0 0
97 33 1 0.7 166.07373736336535 172.30386608154691 5.077232559247516 0 0 0
98 33 2 -0.35 164.93260585127368 172.1405003199212 5.206578993445785 0 0 0
99 33 2 -0.35 167.21486887545703 172.46723184317264 4.947886125049248 0 0 0
100 34 1 0.7 239.04762327300742 98.40434943530911 239.9009592402265 0 0 0
101 34 2 -0.35 238.04900564972942 98.35194181645528 239.31306785232846 0 0 0
102 34 2 -0.35 240.0462408962854 98.45675705416295 240.48885062812457 0 0 0
103 35 1 0.7 77.42195048715078 159.72183754328725 189.92359002862293 0 0 0
104 35 2 -0.35 76.27573892642492 159.90003963395154 189.91702703073597 0 0 0
105 35 2 -0.35 78.56816204787664 159.54363545262296 189.93015302650988 0 0 0
106 36 1 0.7 207.77761106555238 12.309178738998797 107.3670663527991 0 0 0
107 36 2 -0.35 206.7969782682959 11.754330545097556 107.64293370981954 0 0 0
108 36 2 -0.35 208.75824386280885 12.864026932900039 107.09119899577865 0 0 0
109 37 1 0.7 200.28419149447427 85.4064476291679 210.16530342500903 0 0 0
110 37 2 -0.35 199.1249848311703 85.4038686248935 210.122486833731 0 0 0
111 37 2 -0.35 201.44339815777823 85.4090266334423 210.20812001628707 0 0 0
112 38 1 0.7 34.25466412690219 114.13998084521852 212.65806558758862 0 0 0
113 38 2 -0.35 34.297652235879895 114.7492630299245 211.67189762933484 0 0 0
114 38 2 -0.35 34.21167601792449 113.53069866051253 213.6442335458424 0 0 0
115 39 1 0.7 196.10833060187673 90.71242574263012 228.73945638432141 0 0 0
116 39 2 -0.35 195.31974373747332 89.99785475073624 228.2778081905264 0 0 0
117 39 2 -0.35 196.89691746628014 91.426996734524 229.20110457811643 0 0 0
118 40 1 0.7 18.043451290132225 7.285833252261315 231.99947075592328 0 0 0
119 40 2 -0.35 17.79177303064086 7.3264141431731655 233.1311117082541 0 0 0
120 40 2 -0.35 18.29512954962359 7.245252361349465 230.86782980359246 0 0 0
121 41 1 0.7 67.10499480278465 202.64765040140955 242.06029649035088 0 0 0
122 41 2 -0.35 66.58396237204458 203.40037167541263 241.3478809586699 0 0 0
123 41 2 -0.35 67.62602723352471 201.89492912740647 242.77271202203187 0 0 0
124 42 1 0.7 55.403113327176825 4.12568986095753 235.46949311321112 0 0 0
125 42 2 -0.35 54.260492997035115 3.959209377882117 235.58041213728643 0 0 0
126 42 2 -0.35 56.545733657318536 4.292170344032942 235.3585740891358 0 0 0
127 43 1 0.7 122.77075373929495 14.058096330174289 233.42502123928864 0 0 0
128 43 2 -0.35 123.87581331130245 14.115862637342282 233.07701779667528 0 0 0
129 43 2 -0.35 121.66569416728744 14.000330023006295 233.773024681902 0 0 0
130 44 1 0.7 178.3319687239509 236.39834344265904 15.9582407707154 0 0 0
131 44 2 -0.35 177.7111898682965 237.28066524937464 15.531928864047863 0 0 0
132 44 2 -0.35 178.9527475796053 235.51602163594345 16.38455267738294 0 0 0
133 45 1 0.7 191.1526334137435 268.30978478738564 42.55292159018709 0 0 0
134 45 2 -0.35 190.03066882434268 268.07779146999326 42.73451057888385 0 0 0
135 45 2 -0.35 192.27459800314432 268.541778104778 42.37133260149033 0 0 0
136 46 1 0.7 17.953166274332055 115.8655726988174 217.6803490238638 0 0 0
137 46 2 -0.35 17.645417401883808 115.52284355448761 218.74497448154074 0 0 0
138 46 2 -0.35 18.260915146780302 116.2083018431472 216.6157235661869 0 0 0
139 47 1 0.7 53.62604407948723 217.9228439419171 64.23813180077734 0 0 0
140 47 2 -0.35 52.902434141732655 218.07110370198095 65.13256329705229 0 0 0
141 47 2 -0.35 54.349654017241804 217.77458418185327 63.3437003045024 0 0 0
142 48 1 0.7 257.281175664757 48.7193975708072 135.91497255671536 0 0 0
143 48 2 -0.35 256.2711273174592 48.154420036258614 135.9937299155869 0 0 0
144 48 2 -0.35 258.2912240120547 49.28437510535579 135.8362151978438 0 0 0
145 49 1 0.7 63.94376071493316 187.78633588169998 58.94716373130081 0 0 0
146 49 2 -0.35 64.12393248614906 186.89560146515615 58.22624048154309 0 0 0
147 49 2 -0.35 63.763588943717274 188.67707029824382 59.668086981058536 0 0 0
148 50 1 0.7 219.9808319727801 235.8429665150321 166.73821814439177 0 0 0
149 50 2 -0.35 219.31103985738906 235.05034649978091 167.25661184958432 0 0 0
150 50 2 -0.35 220.65062408817113 236.63558653028326 166.21982443919921 0 0 0
151 51 1 0.7 229.23235279239356 172.1533817589066 185.88722194306888 0 0 0
152 51 2 -0.35 228.40844302573248 172.7083203849591 186.48623431165188 0 0 0
153 51 2 -0.35 230.05626255905463 171.59844313285407 185.28820957448588 0 0 0
154 52 1 0.7 118.53919715878517 167.2866477022351 232.68793146530535 0 0 0
155 52 2 -0.35 118.48805069948102 166.1278075521312 232.69650737387914 0 0 0
156 52 2 -0.35 118.59034361808932 168.44548785233897 232.67935555673157 0 0 0
157 53 1 0.7 256.06413738711933 189.95706531403448 228.3967329777762 0 0 0
158 53 2 -0.35 255.02446602569952 189.8792206215583 227.88818242562158 0 0 0
159 53 2 -0.35 257.10380874853917 190.03491000651067 228.9052835299308 0 0 0
160 54 1 0.7 219.89115748456265 83.68384304488258 255.3500553413062 0 0 0
161 54 2 -0.35 219.17094720936785 84.55331144045714 255.61636694188127 0 0 0
162 54 2 -0.35 220.61136775975746 82.81437464930802 255.0837437407311 0 0 0
163 55 1 0.7 112.38012133277027 173.69923986992765 151.1244938737361 0 0 0
164 55 2 -0.35 111.55687757122664 173.53231808944244 151.92449814139917 0 0 0
165 55 2 -0.35 113.20336509431391 173.86616165041286 150.32448960607303 0 0 0
166 56 1 0.7 137.368535882965 103.98258499241554 227.3059675280498 0 0 0
167 56 2 -0.35 136.22947989739987 103.92770661629437 227.09350617725264 0 0 0
168 56 2 -0.35 138.50759186853014 104.0374633685367 227.51842887884695 0 0 0
169 57 1 0.7 44.39624393330712 104.671787092775 157.7256682695475 0 0 0
170 57 2 -0.35 43.287901858322336 104.73954258330048 157.39012834893882 0 0 0
171 57 2 -0.35 45.5045860082919 104.60403160224953 158.06120819015618 0 0 0
172 58 1 0.7 244.3066062844855 140.13182334747714 205.55500104862963 0 0 0
173 58 2 -0.35 244.6796540764759 139.12316869161975 205.98980115224998 0 0 0
174 58 2 -0.35 243.93355849249508 141.14047800333452 205.1202009450093 0 0 0
175 59 1 0.7 54.902624318330844 264.4069181864182 29.07395913082825 0 0 0
176 59 2 -0.35 54.64658726110998 263.3501537463053 28.669862677685497 0 0 0
177 59 2 -0.35 55.15866137555171 265.46368262653107 29.478055583971003 0 0 0
178 60 1 0.7 33.0311118303943 145.89653343702506 75.03747608002159 0 0 0
179 60 2 -0.35 32.01130410263431 145.63126574190005 74.55247582401746 0 0 0
180 60 2 -0.35 34.05091955815429 146.16180113215006 75.52247633602572 0 0 0
181 61 1 0.7 191.86047692264452 241.03563888652045 177.98276574955452 0 0 0
182 61 2 -0.35 190.79010151634486 241.33032774761074 178.3190022210119 0 0 0
183 61 2 -0.35 192.93085232894418 240.74095002543015 177.64652927809712 0 0 0
184 62 1 0.7 58.343952762588835 108.81408083057687 130.2565195054079 0 0 0
185 62 2 -0.35 58.90800555809159 109.62519194800588 130.8644201544194 0 0 0
186 62 2 -0.35 57.77989996708608 108.00296971314786 129.6486188563964 0 0 0
187 63 1 0.7 83.32332739062763 158.16345427844834 14.176057881291984 0 0 0
188 63 2 -0.35 82.25945859336251 158.58864368869112 13.994406711124936 0 0 0
189 63 2 -0.35 84.38719618789274 157.73826486820556 14.35770905145903 0 0 0
190 64 1 0.7 48.00481087435261 49.85636524430307 3.93066100167607 0 0 0
191 64 2 -0.35 48.04505820402467 50.76350465732157 3.208803510336732 0 0 0
192 64 2 -0.35 47.964563544680544 48.94922583128457 4.652518493015409 0 0 0
193 65 1 0.7 209.61945516970914 74.18303730161071 194.3079281711522 0 0 0
194 65 2 -0.35 209.88946342199108 73.56923097893497 195.2544678385423 0 0 0
195 65 2 -0.35 209.3494469174272 74.79684362428645 193.36138850376213 0 0 0
196 66 1 0.7 183.34877255528642 1.8203366989364553 242.39889902500386 0 0 0
197 66 2 -0.35 182.60596515271519 2.0471642584678813 241.537280535809 0 0 0
198 66 2 -0.35 184.09157995785765 1.5935091394050291 243.2605175141987 0 0 0
199 67 1 0.7 55.295913239613135 99.41381817795978 133.0421169703091 0 0 0
200 67 2 -0.35 54.899687738302546 98.42247333770035 132.58842019954454 0 0 0
201 67 2 -0.35 55.692138740923724 100.40516301821921 133.49581374107368 0 0 0
202 68 1 0.7 17.859919985225385 174.67519168307783 22.946617488724467 0 0 0
203 68 2 -0.35 17.20522202657357 175.34089471292933 22.25827886639991 0 0 0
204 68 2 -0.35 18.5146179438772 174.00948865322633 23.634956111049025 0 0 0
205 69 1 0.7 30.80013299211866 47.83519853830114 180.1818332272497 0 0 0
206 69 2 -0.35 29.697764223020553 47.891408689357895 180.53851728329272 0 0 0
207 69 2 -0.35 31.902501761216765 47.77898838724439 179.8251491712067 0 0 0
208 70 1 0.7 162.07105038597763 107.1438371260389 242.47057733566993 0 0 0
209 70 2 -0.35 160.9572800171325 107.2219534317386 242.15591337480623 0 0 0
210 70 2 -0.35 163.18482075482277 107.06572082033921 242.78524129653363 0 0 0
211 71 1 0.7 175.99328060447857 225.0671194712944 85.07695404490313 0 0 0
212 71 2 -0.35 177.03660177506103 224.62804347881476 85.33051509838428 0 0 0
213 71 2 -0.35 174.9499594338961 225.50619546377405 84.82339299142198 0 0 0
214 72 1 0.7 92.36663268709864 117.9955720668638 244.57972777987817 0 0 0
215 72 2 -0.35 91.20938821819092 118.0138548929872 244.65751580885058 0 0 0
216 72 2 -0.35 93.52387715600636 117.9772892407404 244.50193975090576 0 0 0
217 73 1 0.7 123.4847964125149 90.97330513781557 6.339451266145079 0 0 0
218 73 2 -0.35 123.43290927198241 92.06727991036472 6.721716778156552 0 0 0
219 73 2 -0.35 123.53668355304738 89.87933036526643 5.957185754133605 0 0 0
220 74 1 0.7 44.15743010032802 155.9276962130925 106.79025344587409 0 0 0
221 74 2 -0.35 43.008079355132686 156.02331142615506 106.66595302129745 0 0 0
222 74 2 -0.35 45.306780845523356 155.83208100002994 106.91455387045072 0 0 0
223 75 1 0.7 261.78966480576884 213.89639055677523 141.63608772104425 0 0 0
224 75 2 -0.35 261.2523749369039 213.20406664997037 140.8760829810054 0 0 0
225 75 2 -0.35 262.3269546746338 214.5887144635801 142.3960924610831 0 0 0
226 76 1 0.7 13.72632759051692 77.38781381789028 127.98683728183939 0 0 0
227 76 2 -0.35 14.683741822442656 77.7164831874832 128.55334803548615 0 0 0
228 76 2 -0.35 12.768913358591185 77.05914444829735 127.4203265281926 0 0 0
229 77 1 0.7 147.77419587447037 196.910062223631 15.415792565986417 0 0 0
230 77 2 -0.35 146.95466535582776 197.51556944538467 14.86141838421246 0 0 0
231 77 2 -0.35 148.59372639311297 196.30455500187733 15.970166747760373 0 0 0
232 78 1 0.7 17.225656533718883 83.60936221322481 87.55071766932994 0 0 0
233 78 2 -0.35 17.361609122265055 83.1021037976958 86.51640350354539 0 0 0
234 78 2 -0.35 17.08970394517271 84.11662062875382 88.58503183511449 0 0 0
235 79 1 0.7 205.91186842830473 90.77267451760018 157.3406173062234 0 0 0
236 79 2 -0.35 204.99893133921654 90.14885744318009 156.98990641527598 0 0 0
237 79 2 -0.35 206.82480551739292 91.39649159202027 157.69132819717083 0 0 0
238 80 1 0.7 5.7550656971312435 249.3891716848077 197.80850656321667 0 0 0
239 80 2 -0.35 6.690175046062266 248.7960572538575 198.15402903331145 0 0 0
240 80 2 -0.35 4.819956348200221 249.98228611575792 197.4629840931219 0 0 0
241 81 1 0.7 210.56980798280324 57.76276697393636 96.82453094833741 0 0 0
242 81 2 -0.35 209.82580425548238 58.59855429365805 97.13033809332443 0 0 0
243 81 2 -0.35 211.3138117101241 56.92697965421467 96.5187238033504 0 0 0
244 82 1 0.7 245.8916487069296 221.93981736569657 98.51046526222977 0 0 0
245 82 2 -0.35 246.16704755473137 220.90011966536065 98.94495826165057 0 0 0
246 82 2 -0.35 245.61624985912783 222.9795150660325 98.07597226280897 0 0 0
247 83 1 0.7 126.38966229576135 133.05420486119306 221.02110207174957 0 0 0
248 83 2 -0.35 125.50638463404411 133.10282877896873 220.27073130544036 0 0 0
249 83 2 -0.35 127.2729399574786 133.00558094341739 221.77147283805877 0 0 0
250 84 1 0.7 104.66251989484881 1.9718727241139267 79.26487418276486 0 0 0
251 84 2 -0.35 105.81362630508099 1.8285374440665219 79.26186921752036 0 0 0
252 84 2 -0.35 103.51141348461664 2.1152080041613317 79.26787914800936 0 0 0
253 85 1 0.7 239.7403897287978 88.73017190430787 245.9991957023736 0 0 0
254 85 2 -0.35 240.64636734371723 88.05007209907241 245.7496584983667 0 0 0
255 85 2 -0.35 238.83441211387836 89.41027170954332 246.24873290638052 0 0 0
256 86 1 0.7 132.48216979321194 91.82771451297575 3.3978195834894755 0 0 0
257 86 2 -0.35 131.8468191375606 92.14285477260609 4.3157608458388275 0 0 0
258 86 2 -0.35 133.11752044886327 91.5125742533454 2.479878321140124 0 0 0
259 87 1 0.7 197.15373970761604 45.9032659027275 230.19002714110073 0 0 0
260 87 2 -0.35 196.8403042767429 45.39422707399942 231.18412859544054 0 0 0
261 87 2 -0.35 197.46717513848918 46.41230473145558 229.19592568676092 0 0 0
262 88 1 0.7 7.78616048013147 239.99918956961443 102.37909651006531 0 0 0
263 88 2 -0.35 7.790811206630009 239.74033253908317 101.24835719064302 0 0 0
264 88 2 -0.35 7.781509753632932 240.2580466001457 103.5098358294876 0 0 0
265 89 1 0.7 106.47504466747635 113.07572627490187 211.73150227578893 0 0 0
266 89 2 -0.35 105.69895000737095 113.56839109502825 211.0240007185004 0 0 0
267 89 2 -0.35 107.25113932758175 112.58306145477549 212.43900383307746 0 0 0
268 90 1 0.7 70.35874918445887 146.49754320015083 149.2085649353492 0 0 0
269 90 2 -0.35 71.1128870586995 145.72178849905737 149.62699140483605 0 0 0
270 90 2 -0.35 69.60461131021825 147.2732979012443 148.79013846586233 0 0 0
271 91 1 0.7 185.35086841385387 47.04543164188295 185.56960512677654 0 0 0
272 91 2 -0.35 184.3448504202376 46.84693925908347 185.02726891141663 0 0 0
273 91 2 -0.35 186.35688640747014 47.24392402468243 186.11194134213645 0 0 0
274 92 1 0.7 200.35336573345276 164.0178821408273 36.54514088460484 0 0 0
275 92 2 -0.35 199.4673860422507 163.7253847308851 37.23440516770286 0 0 0
276 92 2 -0.35 201.23934542465483 164.3103795507695 35.85587660150682 0 0 0
277 93 1 0.7 128.1828475534836 190.1188313989522 237.19932218976285 0 0 0
278 93 2 -0.35 127.02385153092474 190.0716430830631 237.2093960438558 0 0 0
279 93 2 -0.35 129.34184357604246 190.16601971484133 237.1892483356699 0 0 0
280 94 1 0.7 199.00804334460202 46.184492725964866 78.76924529148697 0 0 0
281 94 2 -0.35 199.09749840287415 45.52219547823054 79.71738038111981 0 0 0
282 94 2 -0.35 198.91858828632988 46.84678997369919 77.82111020185413 0 0 0
283 95 1 0.7 39.705614021376526 130.254857275288 55.38622576575085 0 0 0
284 95 2 -0.35 38.5547222515602 130.11616349045974 55.428795334917766 0 0 0
285 95 2 -0.35 40.85650579119285 130.39355106011627 55.343656196583936 0 0 0
286 96 1 0.7 262.2964449745121 59.35068662434383 226.9900953466958 0 0 0
287 96 2 -0.35 261.67826419428036 59.685812543342024 227.91266953957555 0 0 0
288 96 2 -0.35 262.91462575474384 59.015560705345635 226.06752115381605 0 0 0
289 97 1 0.7 155.53249191610726 239.5916340144312 27.592880545460098 0 0 0
290 97 2 -0.35 155.52449426761675 240.0531017008236 26.528651429134914 0 0 0
291 97 2 -0.35 155.54048956459778 239.13016632803883 28.65710966178528 0 0 0
292 98 1 0.7 72.54332754786282 6.70609693029248 244.3711074257135 0 0 0
293 98 2 -0.35 72.25187713980382 6.122339990015076 245.33021351698818 0 0 0
294 98 2 -0.35 72.83477795592181 7.289853870569884 243.4120013344388 0 0 0
295 99 1 0.7 140.20250396672753 38.48416878957496 197.4248463862691 0 0 0
296 99 2 -0.35 139.10520234914932 38.20851698886252 197.16882833060853 0 0 0
297 99 2 -0.35 141.29980558430574 38.7598205902874 197.68086444192969 0 0 0
298 100 1 0.7 266.3932140252521 79.74812241259409 231.69338846890878 0 0 0
299 100 2 -0.35 266.12562350557096 80.86499593349288 231.5303275842924 0 0 0
300 100 2 -0.35 266.6608045449333 78.6312488916953 231.85644935352516 0 0 0
301 101 1 0.7 71.77999695007689 185.4087399423163 206.6922105102298 0 0 0
302 101 2 -0.35 70.90886084698447 185.31337196947246 205.932192852774 0 0 0
303 101 2 -0.35 72.65113305316932 185.50410791516012 207.45222816768563 0 0 0
304 102 1 0.7 197.98204543207868 146.23757694626116 115.95573581101175 0 0 0
305 102 2 -0.35 199.07736586290554 146.61942597223742 115.9477061675445 0 0 0
306 102 2 -0.35 196.88672500125182 145.8557279202849 115.963765454479 0 0 0
307 103 1 0.7 107.05177567435977 50.193758964628806 254.5069185162461 0 0 0
308 103 2 -0.35 106.02567249499653 49.65408044473543 254.46871693949421 0 0 0
309 103 2 -0.35 108.07787885372302 50.733437484522184 254.54512009299796 0 0 0
310 104 1 0.7 33.779502548174705 258.09932717219897 249.3917831477671 0 0 0
311 104 2 -0.35 32.61990769012111 258.1211672876351 249.37027095277446 0 0 0
312 104 2 -0.35 34.9390974062283 258.07748705676283 249.4132953427597 0 0 0
313 105 1 0.7 241.6993645214007 222.219511181684 192.32443056270685 0 0 0
314 105 2 -0.35 240.81942132196946 222.86556993318675 191.9321193910823 0 0 0
315 105 2 -0.35 242.57930772083193 221.57345243018125 192.7167417343314 0 0 0
316 106 1 0.7 179.70446741427503 268.9838317204191 260.2597250846493 0 0 0
317 106 2 -0.35 178.5744383408092 268.9052579022324 260.009804200733 0 0 0
318 106 2 -0.35 180.83449648774086 269.06240553860584 260.50964596856556 0 0 0
319 107 1 0.7 245.1994977002961 241.9578488766951 230.56607061418057 0 0 0
320 107 2 -0.35 245.89849021347322 241.0403708363952 230.68953523295778 0 0 0
321 107 2 -0.35 244.50050518711896 242.875326916995 230.44260599540337 0 0 0
322 108 1 0.7 94.94881253268048 156.69223676095353 219.42324134634026 0 0 0
323 108 2 -0.35 96.09986533721131 156.7365633436049 219.56003533470292 0 0 0
324 108 2 -0.35 93.79775972814964 156.64791017830217 219.2864473579776 0 0 0
325 109 1 0.7 78.41730794097172 86.69456391161985 179.53566259496642 0 0 0
326 109 2 -0.35 77.26940028035493 86.7957613777178 179.4027450432563 0 0 0
327 109 2 -0.35 79.56521560158852 86.59336644552191 179.66858014667656 0 0 0
328 110 1 0.7 141.88123360084427 68.89312938968331 174.82565240740107 0 0 0
329 110 2 -0.35 142.65247637841694 69.65834578977974 175.23213541942673 0 0 0
330 110 2 -0.35 141.1099908232716 68.12791298958687 174.4191693953754 0 0 0
331 111 1 0.7 112.74001118994319 260.3680693751052 169.14198739367632 0 0 0
332 111 2 -0.35 111.90115942315293 260.66082743703413 169.88778926450294 0 0 0
333 111 2 -0.35 113.57886295673345 260.0753113131763 168.3961855228497 0 0 0
334 112 1 0.7 250.38212551753134 84.38357314950953 91.71392380665705 0 0 0
335 112 2 -0.35 249.50689525801445 83.6687527051452 91.97584693496911 0 0 0
336 112 2 -0.35 251.25735577704822 85.09839359387387 91.45200067834499 0 0 0
337 113 1 0.7 258.9174184850032 178.0524774496688 145.98849658341544 0 0 0
338 113 2 -0.35 257.92526731405775 178.629239364124 146.15755795696205 0 0 0
339 113 2 -0.35 259.9095696559487 177.4757155352136 145.81943520986883 0 0 0
340 114 1 0.7 265.66207746307464 257.53592189519475 265.2392925383706 0 0 0
341 114 2 -0.35 264.5794198937541 257.2735526191946 264.91585019327005 0 0 0
342 114 2 -0.35 266.74473503239517 257.7982911711949 265.56273488347114 0 0 0
343 115 1 0.7 197.78969239480313 165.36007945628842 101.8554218392146 0 0 0
344 115 2 -0.35 198.70331727582226 165.49442590221443 101.15339576473458 0 0 0
345 115 2 -0.35 196.876067513784 165.2257330103624 102.55744791369462 0 0 0
346 116 1 0.7 248.07485167965052 59.032179886490184 22.847352240629192 0 0 0
347 116 2 -0.35 248.30393094215898 57.957147540721664 22.476639215446617 0 0 0
348 116 2 -0.35 247.84577241714206 60.1072122322587 23.218065265811767 0 0 0
349 117 1 0.7 259.44910825483925 171.16243908329048 62.11367286327931 0 0 0
350 117 2 -0.35 259.63963221698214 171.0507569181944 60.97488942739309 0 0 0
351 117 2 -0.35 259.25858429269636 171.27412124838656 63.25245629916554 0 0 0
352 118 1 0.7 52.49981313548042 259.359368019439 17.898302711033406 0 0 0
353 118 2 -0.35 51.34522129857912 259.4321604186964 17.983267155192223 0 0 0
354 118 2 -0.35 53.65440497238173 259.28657562018157 17.813338266874588 0 0 0
355 119 1 0.7 6.773664338408813 24.97653563692073 1.634449726731726 0 0 0
356 119 2 -0.35 7.770760062195933 25.403151934018638 2.046030402487898 0 0 0
357 119 2 -0.35 5.776568614621693 24.54991933982282 1.2228690509755538 0 0 0
358 120 1 0.7 99.1965571801162 4.536526213184244 94.39606498759058 0 0 0
359 120 2 -0.35 98.54450379441192 3.6521043029127833 94.76785023047061 0 0 0
360 120 2 -0.35 99.84861056582048 5.420948123455704 94.02427974471054 0 0 0
361 121 1 0.7 80.66424643465515 181.9898272491944 197.02657721053183 0 0 0
362 121 2 -0.35 79.61890701108331 181.50904397278492 197.17393029211283 0 0 0
363 121 2 -0.35 81.709585858227 182.4706105256039 196.87922412895082 0 0 0
364 122 1 0.7 76.68317740861474 209.16270658800505 256.60962460078747 0 0 0
365 122 2 -0.35 75.73003410458719 208.5724643770003 256.31174547373143 0 0 0
366 122 2 -0.35 77.63632071264229 209.7529487990098 256.9075037278435 0 0 0
367 123 1 0.7 143.96066543504628 58.90396682261674 35.9703877195578 0 0 0
368 123 2 -0.35 143.95167355937048 59.438348370186276 34.940846313013594 0 0 0
369 123 2 -0.35 143.96965731072208 58.3695852750472 36.999929126102 0 0 0
370 124 1 0.7 224.3064026079636 36.708632044358474 165.9787695328606 0 0 0
371 124 2 -0.35 223.15432507998764 36.80577195023688 166.0730096953113 0 0 0
372 124 2 -0.35 225.45848013593957 36.61149213848007 165.88452937040992 0 0 0
373 125 1 0.7 202.17953878835752 233.5084159250876 224.94645294730853 0 0 0
374 125 2 -0.35 201.30056929151928 233.88810842201772 224.29158942610513 0 0 0
375 125 2 -0.35 203.05850828519576 233.12872342815749 225.60131646851192 0 0 0
376 126 1 0.7 225.03468541430064 81.95775815050945 242.04123561225887 0 0 0
377 126 2 -0.35 224.3905527773596 81.06220211158575 242.39994514262386 0 0 0
378 126 2 -0.35 225.67881805124168 82.85331418943315 241.68252608189388 0 0 0
379 127 1 0.7 6.046935235172015 5.8404975360448 59.24208830494531 0 0 0
380 127 2 -0.35 5.69647310484087 6.790281317401037 59.80838068868043 0 0 0
381 127 2 -0.35 6.397397365503159 4.890713754688562 58.675795921210195 0 0 0
382 128 1 0.7 27.778141215805963 205.219414050793 105.69195167799106 0 0 0
383 128 2 -0.35 26.86970242218954 204.69539866182873 105.1962230925924 0 0 0
384 128 2 -0.35 28.686580009422386 205.74342943975728 106.18768026338971 0 0 0
385 129 1 0.7 230.63185199565808 116.53649102502338 111.80465756813281 0 0 0
386 129 2 -0.35 229.57134803570122 117.00129760819681 111.87455886393249 0 0 0
387 129 2 -0.35 231.69235595561494 116.07168444184995 111.73475627233313 0 0 0
388 130 1 0.7 257.8797476081549 81.91805025931357 116.67070828316301 0 0 0
389 130 2 -0.35 256.80990828066416 81.69185478438324 116.28356564733582 0 0 0
390 130 2 -0.35 258.94958693564564 82.14424573424391 117.0578509189902 0 0 0
391 131 1 0.7 199.59411512063542 140.29283251952975 201.63615573692886 0 0 0