LAMMPS data file via write_data, version 29 Aug 2024, timestep = 4000000, units = real

1500 atoms
2 atom types
1000 bonds
1 bond types
500 angles
1 angle types

0 271 xlo xhi
0 271 ylo yhi
0 271 zlo zhi

Masses

1 12.0107
2 15.9994

PairIJ Coeffs # lj/cut/coul/long/gpu

1 1 0.053649 2.8 12
1 2 0.0917684 2.925 12
2 2 0.156973 3.05 12

Bond Coeffs # harmonic

1 0 1.16

Angle Coeffs # harmonic

1 0 180

Atoms # full

458 153 2 -0.35 128.80099719176383 19.1852302546369 4.035848640192947 -7 1 2
457 153 1 0.7 128.68067341780306 19.346114121946542 5.178319020840924 -7 1 2
459 153 2 -0.35 128.56034964384233 19.506997989256185 6.3207894014889 -7 1 2
683 228 2 -0.35 159.79374781898352 2.1069060988639796 17.420893630613243 -3 0 0
684 228 2 -0.35 158.6021384278486 2.368513146595851 15.44756425832617 -3 0 0
682 228 1 0.7 159.19794312341605 2.2377096227299154 16.434228944469705 -3 0 0
1420 474 1 0.7 246.94998039626313 20.185498958440327 15.821139649716246 2 0 -2
1422 474 2 -0.35 246.81976635218172 20.303699823662452 16.967731494352115 2 0 -2
662 221 2 -0.35 238.53476446732495 16.395262403752618 21.995272833381357 4 -8 4
661 221 1 0.7 239.67673008539103 16.580477829677886 22.08018321645974 4 -8 4
663 221 2 -0.35 240.8186957034571 16.765693255603153 22.16509359953812 4 -8 4
1421 474 2 -0.35 247.08019444034454 20.067298093218202 14.674547805080374 2 0 -2
880 294 1 0.7 20.215311204069746 35.82487295654949 18.45179983278598 1 -4 3
882 294 2 -0.35 19.641470367203993 36.70495465817103 18.94349373392491 1 -4 3
881 294 2 -0.35 20.7891520409355 34.94479125492794 17.96010593164705 1 -4 3
1478 493 2 -0.35 69.27943085908086 30.120693222312852 1.6949704329522586 2 5 -8
1477 493 1 0.7 68.40555582639956 29.585146958309604 2.2382315362620244 2 5 -8
1479 493 2 -0.35 67.53168079371828 29.04960069430636 2.7814926395717907 2 5 -8
65 22 2 -0.35 89.20391215732086 49.69242611324439 4.154481414479285 7 -8 2
64 22 1 0.7 90.13071199391159 48.99697738831491 4.209190955578421 7 -8 2
66 22 2 -0.35 91.0575118305023 48.30152866338544 4.263900496677557 7 -8 2
18 6 2 -0.35 230.37512309170765 29.005645809045692 11.145081884881964 4 -1 -4
16 6 1 0.7 230.52220846966577 29.019112442569092 12.29564024558031 4 -1 -4
17 6 2 -0.35 230.66929384762392 29.032579076092492 13.446198606278658 4 -1 -4
1325 442 2 -0.35 33.704546051953336 63.575626253430336 6.915457048188846 -3 2 5
1324 442 1 0.7 32.72402372479421 64.13328271299147 7.186003234729144 -3 2 5
1326 442 2 -0.35 31.74350139763507 64.6909391725526 7.456549421269443 -3 2 5
630 210 2 -0.35 168.44257912972517 61.17316255957733 13.237833250929153 -2 -6 -1
629 210 2 -0.35 168.53200829400924 59.208867282870045 12.006595462979272 -2 -6 -1
628 210 1 0.7 168.4872937118672 60.19101492122369 12.622214356954212 -2 -6 -1
954 318 2 -0.35 194.03017445189528 72.10077722959055 17.945663489353382 3 8 3
952 318 1 0.7 193.4810422287785 71.18237541915653 18.39353837827784 3 8 3
953 318 2 -0.35 192.9319100056617 70.2639736087225 18.8414132672023 3 8 3
929 310 2 -0.35 199.58754494866932 61.71146736539493 5.60191709124379 2 4 6
928 310 1 0.7 199.71904877576043 60.654631817148044 5.142128697063689 2 4 6
930 310 2 -0.35 199.8505526028515 59.597796268901156 4.682340302883588 2 4 6
567 189 2 -0.35 102.60154018704223 81.92143482818007 12.632280959008643 0 3 -7
565 189 1 0.7 102.43884023069198 81.64258398220133 11.518112690791344 0 3 -7
566 189 2 -0.35 102.27614027434173 81.3637331362226 10.403944422574046 0 3 -7
1462 488 1 0.7 124.44803466685187 86.57177783181774 0.7009403405022985 -5 -7 3
1463 488 2 -0.35 123.8019292511014 86.70904131989803 270.7473646871963 -5 -7 2
1464 488 2 -0.35 125.09414008260232 86.43451434373746 1.6545159938082856 -5 -7 3
410 137 2 -0.35 165.93056125700514 78.26995884881988 12.809908653885216 7 -1 5
409 137 1 0.7 166.75453993006846 77.96609200224287 13.567750382669223 7 -1 5
411 137 2 -0.35 167.57851860313176 77.66222515566585 14.32559211145323 7 -1 5
233 78 2 -0.35 154.93001997874046 77.83974851478156 11.48038005957315 2 -9 5
232 78 1 0.7 155.04151315490512 78.05413458767755 12.614931902115636 2 -9 5
234 78 2 -0.35 155.15300633106978 78.26852066057354 13.749483744658122 2 -9 5
314 105 2 -0.35 192.33557710052875 81.7754363881413 23.965356147394754 -1 -7 -6
1011 337 2 -0.35 203.74616956932692 78.38865944177009 2.568788735049453 0 -2 0
1010 337 2 -0.35 202.7304994177766 78.71607914225308 4.628791279462514 0 -2 0
1009 337 1 0.7 203.23833449355178 78.55236929201159 3.5987900072559835 0 -2 0
1375 459 1 0.7 226.15098733536132 95.57813816559693 6.23380947937369 -1 -11 -4
1377 459 2 -0.35 226.5095697837303 95.32719780287395 7.3080755367727015 -1 -11 -4
1376 459 2 -0.35 225.79240488699233 95.8290785283199 5.1595434219746785 -1 -11 -4
931 311 1 0.7 56.8067111989277 108.71117817357383 14.409558030481366 -2 -10 5
932 311 2 -0.35 56.283510902288725 107.73998879635407 14.768239843753625 -2 -10 5
933 311 2 -0.35 57.32991149556668 109.68236755079359 14.050876217209105 -2 -10 5
1093 365 1 0.7 182.03390002009084 107.97013899552401 21.309481689196705 2 2 6
1094 365 2 -0.35 181.37327806878153 108.0296566188062 22.261130936538613 2 2 6
1095 365 2 -0.35 182.69452197140015 107.91062137224183 20.357832441854796 2 2 6
982 328 1 0.7 210.70119820760777 118.19537166348391 10.716486140907698 -3 -1 1
984 328 2 -0.35 210.40138149271058 119.30941028850131 10.837431911563389 -3 -1 1
983 328 2 -0.35 211.00101492250496 117.08133303846651 10.595540370252005 -3 -1 1
207 69 2 -0.35 41.063285345887124 126.68371277900437 21.939764469868138 -2 2 -1
205 69 1 0.7 40.48547434272098 125.7888143070561 22.398993355634754 -2 2 -1
206 69 2 -0.35 39.90766333955484 124.89391583510785 22.858222241401368 -2 2 -1
369 123 2 -0.35 50.432338010763004 145.92527187935056 16.059705916668207 1 -6 1
368 123 2 -0.35 52.48599550518289 145.30479918820996 16.94282795532261 1 -6 1
367 123 1 0.7 51.45916675797295 145.61503553378026 16.50126693599541 1 -6 1
1155 385 2 -0.35 98.74667410273162 147.75520567265818 3.544897247957281 4 7 8
1153 385 1 0.7 98.34063773662352 147.90547050679893 2.468721170812655 4 7 8
848 283 2 -0.35 204.42372541643468 127.16574650426934 18.143031721861696 1 -4 8
847 283 1 0.7 203.63066920772826 127.28397014769024 18.98129481896846 1 -4 8
849 283 2 -0.35 202.83761299902184 127.40219379111115 19.819557916075226 1 -4 8
678 226 2 -0.35 225.66877752091102 140.8278838150138 4.289184032755828 4 7 -4
676 226 1 0.7 224.82570155591617 141.30758477389 3.653015888865062 4 7 -4
677 226 2 -0.35 223.98262559092134 141.78728573276618 3.016847744974296 4 7 -4
790 264 1 0.7 242.68941778117946 124.76680745240898 22.10117080874777 -1 -1 -5
791 264 2 -0.35 242.51829629461704 125.83364846209625 22.523269964023598 -1 -1 -5
792 264 2 -0.35 242.8605392677419 123.69996644272172 21.67907165347194 -1 -1 -5
1216 406 1 0.7 263.3351781211273 132.43522820621567 20.321634746520782 -5 8 6
1218 406 2 -0.35 262.98603027504913 131.73130989129038 19.46829144661625 -5 8 6
1217 406 2 -0.35 263.6843259672055 133.13914652114096 21.174978046425316 -5 8 6
635 212 2 -0.35 263.60559954392147 146.18771328393922 18.815940695384842 1 -2 0
634 212 1 0.7 263.07302732797785 146.828422259714 18.00881069150231 1 -2 0
1154 385 2 -0.35 97.93460137051541 148.05573534093966 1.392545093668029 4 7 8
769 257 1 0.7 124.22274359617984 153.9551997224584 3.763654865351568 -2 1 -4
770 257 2 -0.35 123.61399442717818 154.6614905999234 3.07359860268171 -2 1 -4
771 257 2 -0.35 124.8314927651815 153.2489088449934 4.4537111280214265 -2 1 -4
1391 464 2 -0.35 173.9919529210019 171.74257420936434 3.424356898298056 4 1 -7
270 90 2 -0.35 185.27698364251248 160.78810139753622 21.283687431444715 -1 -2 7
268 90 1 0.7 186.00642784023538 161.55147153876302 20.803294685983353 -1 -2 7
269 90 2 -0.35 186.73587203795827 162.31484167998983 20.322901940521994 -1 -2 7
1392 464 2 -0.35 172.0912024796888 172.3066043843817 4.629104889173087 4 1 -7
1390 464 1 0.7 173.04157770034536 172.02458929687302 4.0267308937355715 4 1 -7
1169 390 2 -0.35 190.82891249661813 150.20493834594097 12.840099215961512 6 -1 -7
1168 390 1 0.7 191.75995094179933 149.8488194347626 13.433350203904503 6 -1 -7
1170 390 2 -0.35 192.69098938698056 149.49270052358423 14.026601191847496 6 -1 -7
1425 475 2 -0.35 203.5776839719604 155.78857639514234 10.676922986361511 -2 3 -3
1423 475 1 0.7 202.78489224125792 155.95492120037486 11.50723056642055 -2 3 -3
1424 475 2 -0.35 201.99210051055545 156.12126600560737 12.337538146479586 -2 3 -3
547 183 1 0.7 199.65542668651506 169.47192605634865 20.548025597755377 1 4 9
548 183 2 -0.35 200.14603314797432 168.6012671620774 19.959078749728306 1 4 9
549 183 2 -0.35 199.1648202250558 170.3425849506199 21.136972445782447 1 4 9
727 243 1 0.7 216.69750230309933 155.99936328876407 6.695590530148257 2 -1 -2
728 243 2 -0.35 217.28139359172656 155.1809778771928 7.274310048734885 2 -1 -2
729 243 2 -0.35 216.11361101447213 156.81774870033536 6.116871011561628 2 -1 -2
705 235 2 -0.35 221.64117155200054 153.27224333489093 23.305672477104512 -2 -8 0
703 235 1 0.7 221.8355406537863 154.31745330327638 22.84160699222069 -2 -8 0
704 235 2 -0.35 222.02990975557205 155.36266327166183 22.37754150733687 -2 -8 0
636 212 2 -0.35 262.54045511203424 147.46913123548873 17.201680687619774 1 -2 0
1077 359 2 -0.35 71.62393925751957 196.90069601271745 18.75890502332725 -11 -2 5
1075 359 1 0.7 70.55810628969353 196.44623845798577 18.81429830488985 -11 -2 5
1076 359 2 -0.35 69.49227332186747 195.9917809032541 18.869691586452447 -11 -2 5
275 92 2 -0.35 107.591174539746 179.944126269683 16.38893940290282 1 -1 2
274 92 1 0.7 108.75078328704689 179.9380299869382 16.35943705524024 1 -1 2
276 92 2 -0.35 109.91039203434777 179.93193370419337 16.329934707577657 1 -1 2
886 296 1 0.7 122.33700303188508 187.3767212291557 2.958415850890619 -6 2 -4
887 296 2 -0.35 123.08176702305349 188.1355918708075 3.4221420057476504 -6 2 -4
888 296 2 -0.35 121.59223904071668 186.61785058750388 2.494689696033587 -6 2 -4
891 297 2 -0.35 164.55463916794568 181.42058984927567 16.893867495008234 -10 1 -1
889 297 1 0.7 165.00412414914933 180.9140331514833 15.952080064855956 -10 1 -1
890 297 2 -0.35 165.453609130353 180.40747645369095 15.010292634703676 -10 1 -1
471 157 2 -0.35 220.15005866210737 182.32447649238674 23.628683126079626 6 4 0
469 157 1 0.7 219.81646653163338 181.5664534295473 24.440912974514784 6 4 0
470 157 2 -0.35 219.4828744011594 180.80843036670785 25.253142822949943 6 4 0
595 199 1 0.7 44.6113197423431 216.6272506195868 8.525553475017611 0 -1 -10
596 199 2 -0.35 43.94211463923292 216.08436312009897 7.7489984590198056 0 -1 -10
597 199 2 -0.35 45.28052484545328 217.1701381190746 9.302108491015417 0 -1 -10
1098 366 2 -0.35 81.42444796290921 242.42068511801972 15.352504754060027 1 4 7
1096 366 1 0.7 82.37966146073802 242.52094886442987 16.00297716294582 1 4 7
1097 366 2 -0.35 83.33487495856681 242.62121261084002 16.65344957183162 1 4 7
1297 433 1 0.7 89.01545577892995 238.4496239960148 270.75016090014606 -7 0 -3
1299 433 2 -0.35 89.5465805621642 239.43632602529885 0.0500368245559622 -7 0 -2
605 202 2 -0.35 141.33749627740545 223.61015886354932 14.59928717153158 -4 1 4
604 202 1 0.7 141.10168403606383 223.1158710248974 13.576706065020696 -4 1 4
606 202 2 -0.35 140.8658717947222 222.6215831862455 12.554124958509814 -4 1 4
897 299 2 -0.35 163.80905321837088 246.5212903092052 13.984899289214736 -6 0 -7
432 144 2 -0.35 127.9133710786197 266.97177098733846 7.892478976279539 -2 2 0
430 144 1 0.7 129.0611376224492 266.98491794847865 8.059987538087668 -2 2 0
431 144 2 -0.35 130.2089041662787 266.9980649096188 8.227496099895799 -2 2 0
895 299 1 0.7 163.34086201168256 247.5756567900979 13.86362143488567 -6 0 -7
896 299 2 -0.35 162.87267080499427 248.6300232709906 13.742343580556605 -6 0 -7
230 77 2 -0.35 186.18481430234337 267.0211942530114 9.204656340159884 7 3 0
229 77 1 0.7 185.64998140386336 266.68455236551625 10.177397832175656 7 3 0
231 77 2 -0.35 185.11514850538336 266.3479104780211 11.150139324191425 7 3 0
866 289 2 -0.35 18.445328981424556 3.9470979022903805 32.70942270280683 2 3 -4
865 289 1 0.7 18.652938191937913 4.042273191698035 31.572127631158967 2 3 -4
867 289 2 -0.35 18.86054740245127 4.1374484811056895 30.4348325595111 2 3 -4
959 320 2 -0.35 17.32445917454507 16.031683013241494 41.109289024186474 3 2 -7
958 320 1 0.7 17.643219589155454 16.979468845327496 40.52133170041718 3 2 -7
960 320 2 -0.35 17.961980003765838 17.927254677413497 39.93337437664788 3 2 -7
722 241 2 -0.35 28.491894911424033 8.961091959058525 44.61081316375056 3 0 9
721 241 1 0.7 28.690243057413756 8.775446987991671 45.738551589849244 3 0 9
723 241 2 -0.35 28.88859120340348 8.589802016924818 46.866290015947925 3 0 9
974 325 2 -0.35 89.50254910908171 16.46005788470003 35.607112238431704 2 9 -3
973 325 1 0.7 90.3761954103302 15.701519999110817 35.69055333407182 2 9 -3
975 325 2 -0.35 91.24984171157868 14.942982113521602 35.77399442971194 2 9 -3
261 87 2 -0.35 156.46109505132125 19.79439768752758 35.132371063692254 -3 -4 -1
259 87 1 0.7 155.4863371601651 20.280517138927046 34.73345386351166 -3 -4 -1
260 87 2 -0.35 154.511579269009 20.766636590326506 34.33453666333108 -3 -4 -1
576 192 2 -0.35 55.076206902715356 48.59242610123264 45.06715477788166 0 5 -5
574 192 1 0.7 54.90104337043905 48.51086414317998 46.21094907055907 0 5 -5
575 192 2 -0.35 54.72587983816275 48.42930218512733 47.35474336323647 0 5 -5
543 181 2 -0.35 100.35126757622957 36.55872255454713 35.322435774856416 -6 -6 6
541 181 1 0.7 101.12723103164952 37.41156313440983 35.449493482974624 -6 -6 6
542 181 2 -0.35 101.90319448706944 38.26440371427253 35.57655119109283 -6 -6 6
1428 476 2 -0.35 192.1764636410506 47.5357035199152 48.283521903213504 4 3 2
1426 476 1 0.7 191.67567586125543 46.93415078119815 49.13964450082926 4 3 2
1314 438 2 -0.35 223.22579569039485 34.31068044854921 25.859193333335416 8 -11 9
1313 438 2 -0.35 224.29179828064278 35.25527500969016 27.69052607007472 8 -11 9
1312 438 1 0.7 223.7587969855188 34.782977729119686 26.77485970170507 8 -11 9
51 17 2 -0.35 8.268528117624314 53.73245172659275 46.620723734518286 3 2 -8
49 17 1 0.7 9.310606833650457 53.36780447335678 46.976679251842896 3 2 -8
50 17 2 -0.35 10.3526855496766 53.003157220120805 47.332634769167505 3 2 -8
1481 494 2 -0.35 84.01387795097688 50.705033031635644 40.02755445124066 -4 -3 1
1482 494 2 -0.35 84.30806280844233 49.61480388053207 38.00091791063466 -4 -3 1
1480 494 1 0.7 84.1609703797096 50.15991845608386 39.01423618093766 -4 -3 1
1329 443 2 -0.35 94.82526830443997 64.43691168890557 42.730932929061645 -1 4 0
1327 443 1 0.7 93.80943614584916 64.25692636628051 42.20056484064345 -1 4 0
1328 443 2 -0.35 92.79360398725835 64.07694104365545 41.67019675222526 -1 4 0
1034 345 2 -0.35 133.29350662400404 52.57762235370614 33.169182047148915 3 -1 -1
1035 345 2 -0.35 131.75390296453583 54.312771339705314 33.13342497606551 3 -1 -1
1033 345 1 0.7 132.52370479426995 53.44519684670574 33.15130351160722 3 -1 -1
1100 367 2 -0.35 160.2640266748266 73.78782107128983 27.686966842814098 -3 -1 5
1099 367 1 0.7 161.09879525958266 74.31725399192482 28.29397770964809 -3 -1 5
719 240 2 -0.35 163.46972047560632 55.49251047602282 40.683814953807875 1 -2 4
718 240 1 0.7 163.74702035714253 54.369251049880575 40.600190571707756 1 -2 4
720 240 2 -0.35 164.02432023867874 53.24599162373833 40.516566189607644 1 -2 4
284 95 2 -0.35 176.4640324796234 70.53897035919098 36.356344640998984 5 3 1
283 95 1 0.7 175.5196236522334 70.0313361186589 35.91362639584971 5 3 1
285 95 2 -0.35 174.5752148248434 69.5237018781268 35.47090815070043 5 3 1
801 267 2 -0.35 175.53344672639665 62.93827050773102 33.9070230277096 -7 -2 -3
799 267 1 0.7 174.41408619164577 63.21099950910704 33.7719271911676 -7 -2 -3
800 267 2 -0.35 173.29472565689488 63.48372851048306 33.6368313546256 -7 -2 -3
708 236 2 -0.35 216.41925959121784 68.42671888704388 28.785035340813845 2 8 11
706 236 1 0.7 217.27453754531012 68.20997460199807 28.03196061932664 2 8 11
707 236 2 -0.35 218.12981549940238 67.99323031695226 27.27888589783943 2 8 11
822 274 2 -0.35 33.60550310484525 94.37312732748207 46.9217053745583 -6 1 -9
820 274 1 0.7 32.69471994737245 94.1280003510044 46.24643742369215 -6 1 -9
821 274 2 -0.35 31.78393678989965 93.88287337452672 45.571169472826 -6 1 -9
962 321 2 -0.35 135.21167710487336 82.470642808256 44.76824819176412 -3 -2 -3
961 321 1 0.7 135.5644715073518 83.5685867695916 44.64312758056118 -3 -2 -3
963 321 2 -0.35 135.9172659098303 84.66653073092719 44.518006969358225 -3 -2 -3
1101 367 2 -0.35 161.93356384433872 74.84668691255982 28.900988576482078 -3 -1 5
152 51 2 -0.35 164.12975103109034 91.86813270559969 45.74781276934194 0 4 2
151 51 1 0.7 163.9081120464517 92.43823021718558 44.76218353490762 0 4 2
153 51 2 -0.35 163.68647306181307 93.00832772877146 43.7765543004733 0 4 2
313 105 1 0.7 192.54486765248785 82.18108791859264 25.031772717363758 -1 -7 -6
315 105 2 -0.35 192.75415820444695 82.58673944904399 26.09818928733276 -1 -7 -6
798 266 2 -0.35 217.39771813048526 78.72179583396004 41.756134933267944 3 1 2
796 266 1 0.7 217.4786525889059 79.62854733152213 41.03721119940658 3 1 2
797 266 2 -0.35 217.55958704732654 80.53529882908421 40.31828746554521 3 1 2
257 86 2 -0.35 15.02319297756028 120.36235370361577 29.83072500709527 10 -2 8
256 86 1 0.7 14.176765541349006 120.29111461406005 30.620715885112926 10 -2 8
258 86 2 -0.35 13.330338105137733 120.21987552450433 31.41070676313058 10 -2 8
7 3 1 0.7 242.02536539342753 120.59736600375918 40.39083070911698 -2 7 -9
8 3 2 -0.35 241.47328921157836 119.97449840430527 41.19882071090212 -2 7 -9
9 3 2 -0.35 242.5774415752767 121.22023360321309 39.58284070733185 -2 7 -9
980 327 2 -0.35 260.14305795026553 105.27039025741693 36.06514686763173 -3 0 4
979 327 1 0.7 259.2782646342748 105.64648795978692 36.74063412797867 -3 0 4
981 327 2 -0.35 258.4134713182841 106.02258566215691 37.416121388325614 -3 0 4
1415 472 2 -0.35 235.81734095319143 136.6625888822206 45.383741491825056 9 -8 -6
1414 472 1 0.7 236.30091396728525 135.92377962757737 44.63146625941818 9 -8 -6
1416 472 2 -0.35 236.78448698137905 135.18497037293417 43.879191027011316 9 -8 -6
201 67 2 -0.35 30.891955115865457 155.3145374659605 32.379082387849664 5 3 0
199 67 1 0.7 31.180908025328897 156.43791288735102 32.36751179028305 5 3 0
200 67 2 -0.35 31.46986093479234 157.5612883087415 32.35594119271643 5 3 0
672 224 2 -0.35 87.90185790672469 152.9759674398862 32.79418957410084 -7 3 4
670 224 1 0.7 87.72348942660241 153.4753965479453 31.762513631120573 -7 3 4
671 224 2 -0.35 87.54512094648015 153.97482565600444 30.7308376881403 -7 3 4
63 21 2 -0.35 125.83691728885078 166.47224429930654 30.469684691455207 -1 -1 14
61 21 1 0.7 126.60241919696887 167.08761494535528 29.852492827728994 -1 -1 14
62 21 2 -0.35 127.36792110508696 167.702985591404 29.235300964002782 -1 -1 14
1040 347 2 -0.35 130.05574642023623 162.69679012197898 39.14155797686181 5 0 -2
1039 347 1 0.7 131.14180923610292 162.66547752782722 38.73524888092542 5 0 -2
1041 347 2 -0.35 132.22787205196957 162.63416493367546 38.328939784989025 5 0 -2
1004 335 2 -0.35 183.6830029460107 149.7066027449355 29.40339891437903 -9 1 0
1003 335 1 0.7 183.0022114404816 149.6337012680066 28.467018489200207 -9 1 0
1005 335 2 -0.35 182.3214199349525 149.5607997910777 27.53063806402138 -9 1 0
1365 455 2 -0.35 263.1427800756733 154.57287161310248 36.7867120751476 5 2 3
1363 455 1 0.7 264.0724080945487 154.4779981897311 37.47401897898247 5 2 3
1364 455 2 -0.35 265.002036113424 154.3831247663597 38.16132588281735 5 2 3
860 287 2 -0.35 18.703120151110884 183.85772851646905 47.145946317677165 7 1 -2
859 287 1 0.7 19.481699916369575 184.53110105385443 46.61117255707815 7 1 -2
861 287 2 -0.35 20.260279681628262 185.20447359123983 46.076398796479126 7 1 -2
1307 436 2 -0.35 102.18539039700147 180.5402761988473 42.47175368920289 -4 -4 8
1306 436 1 0.7 101.58515653245658 179.94452272929874 41.677778178639805 -4 -4 8
1308 436 2 -0.35 100.9849226679117 179.34876925975016 40.88380266807671 -4 -4 8
1321 441 1 0.7 171.79131139069787 176.55984167189598 42.729232444526886 0 1 1
1322 441 2 -0.35 172.75016518636642 176.42224145331494 42.09105881738624 0 1 1
1323 441 2 -0.35 170.83245759502933 176.69744189047702 43.367406071667524 0 1 1
553 185 1 0.7 192.05442794909263 179.3831074266868 40.75031163342665 0 -3 2
554 185 2 -0.35 191.64631461374495 179.63152531891316 39.6932723454468 0 -3 2
555 185 2 -0.35 192.4625412844403 179.13468953446042 41.807350921406496 0 -3 2
318 106 2 -0.35 254.09420299226926 194.30094316115918 39.62243704557581 -8 -1 0
316 106 1 0.7 254.17850980568838 193.35574510684373 38.9552841400666 -8 -1 0
317 106 2 -0.35 254.26281661910753 192.41054705252824 38.2881312345574 -8 -1 0
1382 461 2 -0.35 81.63499164579316 220.9596425754113 27.265394366749657 2 1 4
1381 461 1 0.7 82.13146104236277 220.04103123407387 27.770638210684776 2 1 4
1383 461 2 -0.35 82.62793043893238 219.12241989273647 28.275882054619895 2 1 4
1124 375 2 -0.35 87.23288757572476 221.99565646362043 34.89729991686905 6 -7 1
785 262 2 -0.35 98.90105274329838 207.36241933501356 32.063597884873545 -14 -4 -3
784 262 1 0.7 99.98447088431207 207.23254077752216 31.66997790059294 -14 -4 -3
786 262 2 -0.35 101.06788902532577 207.10266222003077 31.276357916312335 -14 -4 -3
440 147 2 -0.35 123.94258782887977 210.48975233038175 37.71715620144461 -1 3 1
439 147 1 0.7 125.08334767211188 210.45702912583687 37.50931931358763 -1 3 1
441 147 2 -0.35 126.22410751534399 210.42430592129202 37.30148242573066 -1 3 1
360 120 2 -0.35 164.1351138299147 209.50049618381615 24.137375450902173 -1 5 6
358 120 1 0.7 163.71841117966434 208.5062204870097 24.56559822004776 -1 5 6
359 120 2 -0.35 163.301708529414 207.51194479020324 24.993820989193345 -1 5 6
1442 481 2 -0.35 174.5530246840981 203.08060811058377 40.03241493346919 -7 7 1
1443 481 2 -0.35 173.83174411751614 202.1398756215172 38.0381289137903 -7 7 1
1441 481 1 0.7 174.1923844008071 202.6102418660505 39.03527192362975 -7 7 1
1089 363 2 -0.35 186.33593960254169 221.1388743937174 37.63737437950884 -11 -6 -5
1087 363 1 0.7 185.9096381345281 221.842917666049 38.45480335443702 -11 -6 -5
609 203 2 -0.35 233.80205725211832 201.52177547481025 28.937819832467394 -1 5 4
607 203 1 0.7 234.62685935232201 201.97626280064142 29.61512535153358 -1 5 4
608 203 2 -0.35 235.4516614525257 202.4307501264726 30.29243087059977 -1 5 4
988 330 1 0.7 69.39487911027474 233.79686845418513 36.013178742629655 6 2 -1
990 330 2 -0.35 70.22516208845659 233.83970422117247 35.20423172754915 6 2 -1
989 330 2 -0.35 68.5645961320929 233.7540326871978 36.82212575771016 6 2 -1
1125 375 2 -0.35 87.25329143155344 222.64084733805268 32.66891206503235 6 -7 1
1127 376 2 -0.35 76.74938077722956 244.09114894322573 41.77937006685113 6 -4 0
1126 376 1 0.7 77.84803827757176 243.79237912490888 42.00137973467313 6 -4 0
1128 376 2 -0.35 78.94669577791394 243.493609306592 42.22338940249513 6 -4 0
1123 375 1 0.7 87.2430895036391 222.31825190083657 33.7831059909507 6 -7 1
618 206 2 -0.35 147.1425070172418 235.82192017606044 42.10356494688198 3 1 -8
616 206 1 0.7 146.8490012044687 235.48129612415312 43.17287762011237 3 1 -8
617 206 2 -0.35 146.55549539169562 235.1406720722458 44.242190293342745 3 1 -8
1088 363 2 -0.35 185.48333666651453 222.54696093838058 39.27223232936519 -11 -6 -5
15 5 2 -0.35 223.99249564477347 226.11495714509948 34.18925535465545 -3 3 -5
14 5 2 -0.35 225.94268982542877 227.2764772845646 34.668852710109164 -3 3 -5
13 5 1 0.7 224.9675927351011 226.69571721483206 34.429054032382304 -3 3 -5
579 193 2 -0.35 27.531118683998166 252.63193126515992 37.186759765507134 -8 -3 -9
577 193 1 0.7 26.819712617148618 251.86619832573265 36.68361518039716 -8 -3 -9
578 193 2 -0.35 26.10830655029907 251.10046538630536 36.18047059528718 -8 -3 -9
1447 483 1 0.7 32.169600255946754 251.4877837462947 47.29765896265326 3 -4 -1
1448 483 2 -0.35 32.442316693104864 252.436129149805 46.68785018890099 3 -4 -1
1449 483 2 -0.35 31.896883818788645 250.53943834278442 47.907467736405536 3 -4 -1
491 164 2 -0.35 76.74221441146459 266.7474143494001 38.25422674949835 1 8 0
490 164 1 0.7 76.41599870222733 267.4313221452133 37.375902528113635 1 8 0
492 164 2 -0.35 76.08978299299007 268.1152299410264 36.49757830672892 1 8 0
35 12 2 -0.35 193.12554534702983 264.6346272714071 45.23448126885425 -2 8 0
36 12 2 -0.35 191.07980228982694 263.8273013054925 45.97310169143551 -2 8 0
34 12 1 0.7 192.10267381842837 264.2309642884498 45.603791480144885 -2 8 0
512 171 2 -0.35 95.44555845325235 17.62595847818182 50.630304534465495 -3 -1 -2
511 171 1 0.7 94.78093494461407 18.55803331846314 50.44292234779577 -3 -1 -2
513 171 2 -0.35 94.11631143597579 19.49010815874446 50.25554016112605 -3 -1 -2
714 238 2 -0.35 173.23825860608454 9.075669533458417 52.191543920352814 -2 2 1
713 238 2 -0.35 173.32540226369085 8.489668948136433 54.43462423477309 -2 2 1
712 238 1 0.7 173.2818304348877 8.782669240797425 53.313084077562955 -2 2 1
1132 378 1 0.7 184.45617618592965 14.912904086490967 67.05099238328322 1 -13 -1
1133 378 2 -0.35 183.5294674381293 14.266359476910342 67.31327270006703 1 -13 -1
1134 378 2 -0.35 185.38288493372997 15.55944869607159 66.7887120664994 1 -13 -1
1461 487 2 -0.35 207.04616685917716 6.7428832755289845 55.04509793857335 5 -2 12
1460 487 2 -0.35 207.5502438521755 5.505936951554794 56.94200863144493 5 -2 12
1459 487 1 0.7 207.29820535567634 6.124410113541889 55.993553285009135 5 -2 12
1140 380 2 -0.35 219.20829656049645 1.036438935845999 65.75979732701903 -11 5 4
1138 380 1 0.7 219.33135437331896 2.167780461404456 65.98457082913126 -11 5 4
1139 380 2 -0.35 219.45441218614147 3.2991219869629127 66.20934433124349 -11 5 4
875 292 2 -0.35 230.13257917671382 20.622839878191687 56.362231965500115 -5 -7 7
874 292 1 0.7 230.4472151903816 21.134454013128412 55.369833277554605 -5 -7 7
876 292 2 -0.35 230.76185120404935 21.646068148065137 54.377434589609095 -5 -7 7
795 265 2 -0.35 12.427018158647414 34.34572139608997 53.755319222555606 9 2 0
793 265 1 0.7 11.588619965264385 34.47033258294395 54.54725389248956 9 2 0
794 265 2 -0.35 10.750221771881357 34.59494376979793 55.3391885624235 9 2 0
11 4 2 -0.35 21.51551783409525 48.05637273644118 50.41492274596221 0 -5 5
10 4 1 0.7 22.145289897046858 48.47410603706248 51.29497162999033 0 -5 5
12 4 2 -0.35 22.775061959998467 48.89183933768377 52.17502051401845 0 -5 5
187 63 1 0.7 58.257151498321264 24.872296187931543 62.11161807857696 2 -7 -2
189 63 2 -0.35 57.224598952490865 25.137058536244314 62.56915074300038 2 -7 -2
188 63 2 -0.35 59.28970404415166 24.60753383961877 61.65408541415354 2 -7 -2
533 178 2 -0.35 92.19883867455862 29.671719113460984 57.54564969558578 -8 0 1
532 178 1 0.7 93.00993758818662 29.70872106616513 58.37411176943693 -8 0 1
534 178 2 -0.35 93.82103650181463 29.745723018869278 59.20257384328807 -8 0 1
1252 418 1 0.7 86.13038815059329 44.34486956217651 66.319124061129 3 -4 -2
237 79 2 -0.35 89.45607106332278 45.97024405638389 71.03454969300542 -1 -7 -10
235 79 1 0.7 88.38788019390577 45.52781241761168 70.9406214677162 -1 -7 -10
236 79 2 -0.35 87.31968932448876 45.085380778839465 70.84669324242698 -1 -7 -10
1254 418 2 -0.35 85.04567901407039 44.69442146472366 66.53550233307065 3 -4 -2
1253 418 2 -0.35 87.21509728711621 43.995317659629364 66.10274578918735 3 -4 -2
654 218 2 -0.35 74.75498552256555 31.767691449462166 61.767416154037555 3 1 -2
653 218 2 -0.35 75.06667625236226 31.20818801910025 59.537572033840156 3 1 -2
652 218 1 0.7 74.9108308874639 31.48793973428121 60.652494093938856 3 1 -2
1427 476 2 -0.35 191.1748880814603 46.332598042481095 49.99576709844502 4 3 2
812 271 2 -0.35 203.32321805970867 27.314367268222302 70.74528889520151 -3 0 -6
811 271 1 0.7 204.29431051961876 26.84302814636787 70.32053147441316 -3 0 -6
813 271 2 -0.35 205.26540297952886 26.37168902451344 69.89577405362482 -3 0 -6
245 82 2 -0.35 37.59735504766801 74.53997787771567 73.663156172394 7 -3 0
40 14 1 0.7 113.19477324421665 68.83333179480958 66.22033222308528 5 -3 0
42 14 2 -0.35 112.24559520600904 68.47711409834768 66.78404314591127 5 -3 0
41 14 2 -0.35 114.14395128242425 69.18954949127148 65.65662130025929 5 -3 0
529 177 1 0.7 165.8828735892894 51.425004064073136 51.73798454005626 -6 -3 -2
530 177 2 -0.35 166.64501442550568 50.875033411210126 52.41789161220751 -6 -3 -2
531 177 2 -0.35 165.12073275307313 51.974974716936146 51.05807746790501 -6 -3 -2
345 115 2 -0.35 176.61323365337748 70.31722423711032 66.37732497892621 -3 5 -3
343 115 1 0.7 175.57990414079984 69.9797404389619 66.78221361105223 -3 5 -3
344 115 2 -0.35 174.5465746282222 69.64225664081347 67.18710224317824 -3 5 -3
52 18 1 0.7 241.54084279672168 63.072472766363646 68.26306579000861 -3 -8 -3
53 18 2 -0.35 242.26141901560618 62.67511552116159 69.080670298597 -3 -8 -3
54 18 2 -0.35 240.82026657783717 63.469830011565705 67.44546128142022 -3 -8 -3
591 197 2 -0.35 264.170426461878 75.16000287809784 68.16428505336279 -11 0 0
589 197 1 0.7 263.8596239856906 74.20962117621369 68.75231263904094 -11 0 0
590 197 2 -0.35 263.5488215095032 73.25923947432953 69.34034022471907 -11 0 0
244 82 1 0.7 38.70635955484225 74.87559259793792 73.60773268789961 7 -3 0
246 82 2 -0.35 39.81536406201649 75.21120731816018 73.55230920340523 7 -3 0
107 36 2 -0.35 122.03435660690394 98.71957252879588 70.91581294652305 -10 4 3
106 36 1 0.7 121.879919233061 97.81154285589032 71.62095918006901 -10 4 3
108 36 2 -0.35 121.72548185921806 96.90351318298477 72.32610541361497 -10 4 3
21 7 2 -0.35 194.51886985603252 90.83604138746037 56.00467425743305 2 -4 -2
19 7 1 0.7 195.28410558996936 91.69086358520546 56.17582705977243 2 -4 -2
20 7 2 -0.35 196.0493413239062 92.54568578295056 56.34697986211181 2 -4 -2
899 300 2 -0.35 192.00697865064177 94.72712833962652 59.68730259651878 3 -8 4
898 300 1 0.7 192.89595651426984 94.98259082157155 58.98726168464429 3 -8 4
900 300 2 -0.35 193.7849343778979 95.23805330351658 58.2872207727698 3 -8 4
1289 430 2 -0.35 21.762159341728815 99.02876393526927 63.09188287693902 5 10 0
1054 352 1 0.7 9.056017580102965 113.00076477902557 69.80339421831228 0 -4 2