LAMMPS (29 Aug 2024 - Update 1)
  using 1 OpenMP thread(s) per MPI task
package gpu 1 gpuID 0
# GCMC for CO2 molecular fluid, rigid/small/nvt dynamics
# Rigid CO2 TraPPE model
# [Potoff and J.I. Siepmann, Vapor-liquid equilibria of
# mixtures containing alkanes, carbon dioxide and
# nitrogen AIChE J., 47,1676-1682 (2001)].

# global model settings

units           real
atom_style      full
boundary        p p p
pair_style      lj/cut/coul/long  12
pair_modify     mix arithmetic shift yes
kspace_style    pppm 1.0e-4
bond_style      harmonic
angle_style     harmonic
neigh_modify    one 4000

# box, start molecules on simple cubic lattice
region          mbox block 0 ${lbox} 0 ${lbox} 0 ${lbox} units box
region          mbox block 0 271 0 ${lbox} 0 ${lbox} units box
region          mbox block 0 271 0 271 0 ${lbox} units box
region          mbox block 0 271 0 271 0 271 units box
create_box      2 mbox                                       bond/types 1                                angle/types 1                               extra/bond/per/atom 2                       extra/angle/per/atom 1                      extra/special/per/atom 2
Created orthogonal box = (0 0 0) to (271 271 271)
  1 by 1 by 1 MPI processor grid
molecule        co2mol ../CO2.txt
Read molecule template co2mol:
# CO2 molecule file. TraPPE model.
  1 molecules
  0 fragments
  3 atoms with max type 2
  2 bonds with max type 1
  1 angles with max type 1
  0 dihedrals with max type 0
  0 impropers with max type 0
create_atoms   	0 random ${nmols} 34578 mbox mol co2mol 464563 overlap 1.2
create_atoms   	0 random 500 34578 mbox mol co2mol 464563 overlap 1.2
Created 1500 atoms
  using lattice units in orthogonal box = (0 0 0) to (271 271 271)
  create_atoms CPU = 0.007 seconds

# rigid CO2 TraPPE model

pair_coeff      1   1  0.053649   2.800
pair_coeff      2   2  0.156973   3.050
bond_coeff      1       0       1.16
angle_coeff     1       0       180

# masses

mass 1 12.0107
mass 2 15.9994

write_data init_conf.data  pair ij
System init for write_data ...
PPPM initialization ...
  using 12-bit tables for long-range coulomb (src/kspace.cpp:342)
  G vector (1/distance) = 0.13650934
  grid = 40 40 40
  stencil order = 5
  estimated absolute RMS force accuracy = 0.039405205
  estimated relative force accuracy = 0.0001186676
  using double precision FFTW3
  3d grid and FFT values/proc = 91125 64000
Generated 1 of 1 mixed pair_coeff terms from arithmetic mixing rule

# MD settings

group           co2 type 1 2
1500 atoms in group co2
velocity       	all create 300 54654
timestep        0.25

# rigid constraints with thermostat
fix             myrigidnvt co2 rigid/nvt molecule temp 300 300 $(100*dt)
fix             myrigidnvt co2 rigid/nvt molecule temp 300 300 25
  500 rigid bodies with 1500 atoms

thermo 1000
thermo_style custom step temp density press ke pe etotal


variable    mvol equal vol
variable    mden equal density
variable	mtmp equal temp
variable    mpre equal press

fix mydat all ave/time 1 4000 4000 v_mtmp v_mden v_mpre file statistics.dat ## every 1ps

run 4000000 ## 1ns

CITE-CITE-CITE-CITE-CITE-CITE-CITE-CITE-CITE-CITE-CITE-CITE-CITE

Your simulation uses code contributions which should be cited:

- GPU package (short-range, long-range and three-body potentials): doi:10.1016/j.cpc.2010.12.021, doi:10.1016/j.cpc.2011.10.012, doi:10.1016/j.cpc.2013.08.002, doi:10.1016/j.commatsci.2014.10.068, doi:10.1016/j.cpc.2016.10.020, doi:10.3233/APC200086

@Article{Brown11,
 author = {W. M. Brown and P. Wang and S. J. Plimpton and A. N. Tharrington},
 title = {Implementing Molecular Dynamics on Hybrid High Performance Computers---Short Range Forces},
 journal = {Comput.\ Phys.\ Commun.},
 year =    2011,
 volume =  182,
 pages =   {898--911},
 doi =     {10.1016/j.cpc.2010.12.021}
}

@Article{Brown12,
 author = {W. M. Brown and A. Kohlmeyer and S. J. Plimpton and A. N. Tharrington},
 title = {Implementing Molecular Dynamics on Hybrid High Performance Computers - Particle-Particle Particle-Mesh},
 journal = {Comput.\ Phys.\ Commun.},
 year =    2012,
 volume =  183,
 doi =     {10.1016/j.cpc.2011.10.012},
 pages =   {449--459}
}

@Article{Brown13,
 author = {W. M. Brown and Y. Masako},
 title = {Implementing Molecular Dynamics on Hybrid High Performance Computers---Three-Body Potentials},
 journal = {Comput.\ Phys.\ Commun.},
 year =    2013,
 volume =  184,
 pages =   {2785--2793},
 doi =     {10.1016/j.cpc.2013.08.002},
}

@Article{Trung15,
 author = {T. D. Nguyen and S. J. Plimpton},
 title = {Accelerating Dissipative Particle Dynamics Simulations for Soft Matter Systems},
 journal = {Comput.\ Mater.\ Sci.},
 year =    2015,
 doi =     {10.1016/j.commatsci.2014.10.068},
 volume =  100,
 pages =   {173--180}
}

@Article{Trung17,
 author = {T. D. Nguyen},
 title = {{GPU}-Accelerated {T}ersoff Potentials for Massively Parallel
    Molecular Dynamics Simulations},
 journal = {Comput.\ Phys.\ Commun.},
 year =    2017,
 doi =     {10.1016/j.cpc.2016.10.020},
 volume =  212,
 pages =   {113--122}
}

@inproceedings{Nikolskiy19,
 author = {V. Nikolskiy and V. Stegailov},
 title = {{GPU} Acceleration of Four-Site Water Models in {LAMMPS}},
 booktitle = {Proceedings of the International Conference on Parallel
    Computing (ParCo 2019), Prague, Czech Republic},
 doi =     {10.3233/APC200086},
 year =    2019
}

CITE-CITE-CITE-CITE-CITE-CITE-CITE-CITE-CITE-CITE-CITE-CITE-CITE

PPPM initialization ...
  using 12-bit tables for long-range coulomb (src/kspace.cpp:342)
  G vector (1/distance) = 0.13650934
  grid = 40 40 40
  stencil order = 5
  estimated absolute RMS force accuracy = 0.039405205
  estimated relative force accuracy = 0.0001186676
  using double precision FFTW3
  3d grid and FFT values/proc = 91125 64000
Generated 1 of 1 mixed pair_coeff terms from arithmetic mixing rule
Per MPI rank memory allocation (min/avg/max) = 16.3 | 16.3 | 16.3 Mbytes
   Step          Temp         Density         Press          KinEng         PotEng         TotEng    
         0   306.91746      0.0018359364   11.326984      761.47069      7.6784199      769.14911    
      1000   303.46486      0.0018359364  -1.1349081      752.90469     -1.4182594      751.48643    
      2000   294.73861      0.0018359364   0.80818194     731.25461     -0.68173703     730.57287    
      3000   298.51579      0.0018359364   1.6598081      740.62591     -1.1244929      739.50142    
      4000   296.50155      0.0018359364   1.7812073      735.62853     -1.0887978      734.53973    
      5000   303.72434      0.0018359364  -0.36735961     753.54846     -0.87539266     752.67307    
      6000   304.61445      0.0018359364   0.26198559     755.75685     -1.8927145      753.86414    
      7000   294.40738      0.0018359364   0.45475823     730.43282     -3.3132365      727.11958    
      8000   273.71441      0.0018359364   2.5269395      679.09299     -3.6345319      675.45846    
      9000   325.72869      0.0018359364   3.0414986      808.14187     -2.5789828      805.56288    
     10000   302.30113      0.0018359364   0.53382384     750.01743     -3.2810022      746.73643    
     11000   287.5142       0.0018359364   1.5875076      713.33065     -2.2295452      711.10111    
     12000   300.9853       0.0018359364   1.389748       746.75284     -3.0814295      743.67141    
     13000   303.3615       0.0018359364   0.52521461     752.64825     -2.3372476      750.311      
     14000   300.98355      0.0018359364   1.9472059      746.74848     -1.3463945      745.40208    
     15000   296.16399      0.0018359364   1.2390574      734.79103     -1.4018737      733.38915    
     16000   297.10066      0.0018359364   1.1026699      737.11493     -2.8854852      734.22945    
     17000   297.79984      0.0018359364  -0.26137617     738.84962     -3.305712       735.54391    
     18000   302.28814      0.0018359364   0.98503059     749.9852      -3.0845976      746.9006     
     19000   297.04134      0.0018359364   1.2888322      736.96776     -3.9309574      733.0368     
     20000   301.76488      0.0018359364   1.2449304      748.68699     -3.9101418      744.77685    
     21000   296.77718      0.0018359364   0.91315824     736.31237     -3.7288834      732.58349    
     22000   303.48795      0.0018359364   1.0119551      752.96198     -3.6410321      749.32095    
     23000   303.66823      0.0018359364   0.99245812     753.40924     -5.0216271      748.38761    
     24000   295.18065      0.0018359364   1.180436       732.35134     -3.7426563      728.60868    
     25000   307.53365      0.0018359364   0.55765486     762.99947     -1.2410267      761.75845    
     26000   301.26656      0.0018359364   0.97729648     747.45065     -0.17499276     747.27566    
     27000   297.17558      0.0018359364   1.1207987      737.30081     -1.6097794      735.69103    
     28000   305.82554      0.0018359364   1.6361898      758.76159     -3.6375615      755.12403    
     29000   306.63772      0.0018359364  -0.091217895    760.77663     -2.7081459      758.06848    
     30000   301.4843       0.0018359364   1.1673858      747.99087     -2.2617455      745.72912    
     31000   294.1133       0.0018359364   1.4216573      729.70321     -2.981172       726.72204    
     32000   301.11387      0.0018359364   0.81387892     747.07182     -2.7876416      744.28418    
     33000   295.82764      0.0018359364   0.98397507     733.95653     -3.918521       730.038      
     34000   299.28444      0.0018359364   0.92088244     742.53294     -4.7615524      737.77138    
     35000   308.30171      0.0018359364   1.1158555      764.90505     -4.210335       760.69471    
     36000   293.13729      0.0018359364   1.0738186      727.28169     -4.5038899      722.7778     
     37000   296.13874      0.0018359364   0.98354249     734.72838     -4.4245325      730.30384    
     38000   296.52827      0.0018359364   0.96072816     735.69482     -4.1237372      731.57108    
     39000   296.87773      0.0018359364   0.93331437     736.56184     -3.8209294      732.74091    
     40000   303.97446      0.0018359364   1.362017       754.16902     -2.8811622      751.28786    
     41000   304.54198      0.0018359364   1.2468939      755.57705     -4.5316772      751.04537    
     42000   293.81809      0.0018359364   0.60604368     728.97078     -3.5262929      725.44448    
     43000   297.64782      0.0018359364   0.6686632      738.47245     -2.2830582      736.18939    
     44000   306.67782      0.0018359364   1.1479206      760.87613     -1.9430265      758.9331     
     45000   303.70434      0.0018359364   1.6475399      753.49883     -2.0269228      751.47191    
     46000   297.56046      0.0018359364   0.76643665     738.25571     -2.5883314      735.66738    
     47000   308.64349      0.0018359364   1.3914434      765.753       -1.7277877      764.02522    
     48000   298.81293      0.0018359364   1.2048095      741.36311     -1.8850465      739.47806    
     49000   287.82712      0.0018359364   0.74976183     714.10703     -1.7116265      712.3954     
     50000   297.21731      0.0018359364   1.0204177      737.40434     -2.3869119      735.01743    
     51000   311.38372      0.0018359364   1.2455227      772.55159     -1.5704861      770.9811     
     52000   291.13031      0.0018359364   1.167653       722.30233     -2.6052031      719.69712    
     53000   296.95975      0.0018359364   0.44895121     736.76533     -2.2498529      734.51548    
     54000   305.6833       0.0018359364   0.58879102     758.4087      -1.7446925      756.66401    
     55000   296.09143      0.0018359364   1.6120465      734.611       -1.7225277      732.88847    
     56000   295.92148      0.0018359364   1.3329578      734.18934     -1.1298647      733.05947    
     57000   300.9324       0.0018359364   0.55862621     746.62158     -2.9400911      743.68149    
     58000   306.15451      0.0018359364   0.87382995     759.57777     -3.7819502      755.79582    
     59000   304.8993       0.0018359364   1.760307       756.46356     -2.124566       754.33899    
     60000   300.19013      0.0018359364   1.3683569      744.78        -3.4453538      741.33464    
     61000   297.48547      0.0018359364  -0.1202516      738.06965     -1.9994726      736.07018    
     62000   304.01053      0.0018359364   1.2025117      754.2585      -1.6942977      752.5642     
     63000   298.07222      0.0018359364   1.6276423      739.5254      -5.1894698      734.33593    
     64000   295.80516      0.0018359364   0.28208509     733.90076     -3.9935152      729.90724    
     65000   306.33399      0.0018359364   0.91814126     760.02309     -3.599835       756.42325    
     66000   299.20683      0.0018359364   1.6258302      742.34038     -3.4384116      738.90197    
     67000   292.07497      0.0018359364   1.6473682      724.64604     -2.409097       722.23695    
     68000   299.14954      0.0018359364   1.0082992      742.19826     -2.4634127      739.73485    
     69000   312.41025      0.0018359364   0.60536904     775.09844     -2.4636353      772.63481    
     70000   308.97134      0.0018359364   1.1665349      766.56642     -2.5269768      764.03945    
     71000   291.52441      0.0018359364   0.9627291      723.2801      -2.0425101      721.23759    
     72000   310.69604      0.0018359364   0.93542732     770.84544     -0.76345312     770.08199    
     73000   299.88903      0.0018359364   1.1085901      744.03295     -3.2083842      740.82456    
     74000   297.23314      0.0018359364   1.0324974      737.44362     -1.8221267      735.62149    
     75000   312.08934      0.0018359364   1.1631532      774.30225     -2.5581133      771.74414    
     76000   307.23159      0.0018359364   0.77095434     762.25005     -1.0896822      761.16037    
     77000   292.28631      0.0018359364   0.77397469     725.1704      -2.3634627      722.80694    
     78000   298.3848       0.0018359364   0.95933174     740.30093     -1.6684257      738.6325     
     79000   312.59843      0.0018359364   1.1937756      775.56531     -1.4995739      774.06574    
     80000   307.09753      0.0018359364   1.3952412      761.91744     -2.1211945      759.79625    
     81000   292.92682      0.0018359364   0.92343543     726.75951     -3.0885835      723.67093    
     82000   314.81312      0.0018359364   0.81819789     781.06003     -2.8094617      778.25057    
     83000   304.52646      0.0018359364   2.0641023      755.53855     -0.81990786     754.71864    
     84000   286.54113      0.0018359364   0.58212132     710.91643     -1.4997912      709.41664    
     85000   299.83551      0.0018359364   0.4542847      743.90016     -0.73512819     743.16503    
     86000   311.35277      0.0018359364   1.2558171      772.4748      -1.8069936      770.66781    
     87000   288.99895      0.0018359364   1.1320756      717.01436     -4.0924278      712.92194    
     88000   284.20562      0.0018359364   1.1091003      705.12197     -2.7289837      702.39299    
     89000   299.07718      0.0018359364   0.88347934     742.01873     -3.7736602      738.24507    
     90000   316.88527      0.0018359364   1.154253       786.20109     -2.1369129      784.06418    
     91000   304.35526      0.0018359364   1.1680772      755.1138      -2.19662        752.91718    
     92000   295.52238      0.0018359364   0.80503491     733.19918     -1.0354135      732.16376    
     93000   295.00315      0.0018359364   0.88802278     731.91095     -2.1914563      729.71949    
     94000   289.20169      0.0018359364   1.0043291      717.51737     -1.2373273      716.28004    
     95000   303.33953      0.0018359364   1.033336       752.59373     -1.2405913      751.35313    
     96000   293.44695      0.0018359364   0.97581229     728.04998     -0.55388708     727.49609    
     97000   299.98358      0.0018359364   1.0709857      744.26754     -0.74786587     743.51968    
     98000   308.95383      0.0018359364   1.1323711      766.52296     -1.8747002      764.64826    
     99000   301.55723      0.0018359364   0.93310114     748.1718      -3.5630072      744.6088     
    100000   285.72537      0.0018359364   0.87058553     708.89252     -5.9893575      702.90317    
    101000   298.36547      0.0018359364   0.97543153     740.25295     -5.4956693      734.75728    
    102000   313.74772      0.0018359364   1.0873673      778.41673     -5.626824       772.78991    
    103000   305.13002      0.0018359364   0.93780083     757.03599     -2.6455266      754.39046    
    104000   297.77141      0.0018359364   1.0041897      738.77908     -3.3629027      735.41617    
    105000   305.97026      0.0018359364   1.2896932      759.12065     -4.0434983      755.07715    
    106000   304.18118      0.0018359364   0.90258358     754.6819      -3.2096777      751.47222    
    107000   295.79666      0.0018359364   1.2675808      733.87966     -3.070546       730.80911    
    108000   287.50291      0.0018359364   0.99585363     713.30265     -3.444813       709.85784    
    109000   301.86595      0.0018359364   0.69549732     748.93774     -2.2389565      746.69879    
    110000   312.13511      0.0018359364   1.0555214      774.41581     -3.2704807      771.14533    
    111000   303.42233      0.0018359364   1.1247377      752.79916     -1.9905891      750.80857    
    112000   292.96123      0.0018359364   1.1854506      726.84489     -4.0163319      722.82856    
    113000   295.49495      0.0018359364   0.96145907     733.13111     -3.0235917      730.10752    
    114000   286.69268      0.0018359364   0.78771732     711.29243     -1.1857766      710.10666    
    115000   307.04366      0.0018359364   0.67637875     761.78379     -1.128341       760.65544    
    116000   303.89491      0.0018359364   1.027747       753.97164     -1.578734       752.39291    
    117000   299.47306      0.0018359364   1.265958       743.00092     -2.3978666      740.60305    
    118000   287.62033      0.0018359364   0.95781919     713.59396     -1.5926831      712.00128    
    119000   306.52338      0.0018359364  -0.010039022    760.49296     -3.7492729      756.74369    
    120000   294.6307       0.0018359364   0.88910299     730.98689     -2.8949284      728.09196    
    121000   290.83992      0.0018359364   1.3495054      721.58186     -2.1035253      719.47834    
    122000   300.21699      0.0018359364   1.3482749      744.84662     -1.6207656      743.22585    
    123000   300.17441      0.0018359364  -0.18946291     744.74098     -1.634658       743.10632    
    124000   299.73047      0.0018359364  -0.70545451     743.63955     -3.4842893      740.15526    
    125000   308.44834      0.0018359364   1.0741956      765.26885     -1.6983198      763.57053    
    126000   294.75464      0.0018359364   1.8398099      731.29438     -1.4445159      729.84986    
    127000   287.94868      0.0018359364   0.67428071     714.40861     -2.3416519      712.06696    
    128000   294.26819      0.0018359364  -0.36393886     730.08748     -1.9185595      728.16892    
    129000   298.76884      0.0018359364  -0.13943371     741.25373     -1.9694244      739.28431    
    130000   316.61792      0.0018359364   0.48545284     785.53778     -2.0160274      783.52175    
    131000   301.66835      0.0018359364   1.2192376      748.44749     -1.1416751      747.30581    
    132000   290.42672      0.0018359364   1.8215981      720.5567      -1.5892248      718.96747    
    133000   294.02096      0.0018359364   1.4122719      729.47411     -2.4101217      727.06399    
    134000   300.58942      0.0018359364   0.27218182     745.77064     -2.8900943      742.88055    
    135000   303.71809      0.0018359364   0.20104866     753.53296     -1.6355196      751.89744    
    136000   296.29145      0.0018359364   4.22675        735.10726     -3.3204405      731.78682    
    137000   303.76597      0.0018359364   0.9921162      753.65175     -2.1605226      751.49123    
    138000   307.81113      0.0018359364   0.99542797     763.68789     -3.2949833      760.39291    
    139000   301.1625       0.0018359364  -1.7069489      747.19246     -1.766167       745.42629    
    140000   297.77636      0.0018359364   2.0540155      738.79135     -2.1155458      736.6758     
    141000   289.85494      0.0018359364   1.2170756      719.1381      -3.6898034      715.4483     
    142000   296.72282      0.0018359364  -0.1363106      736.17749     -5.3693608      730.80813    
    143000   300.71941      0.0018359364   0.44595223     746.09314     -2.7126628      743.38048    
    144000   307.5006       0.0018359364   1.4752283      762.91747     -2.4510748      760.46639    
    145000   303.39641      0.0018359364   2.3802856      752.73486     -2.2227297      750.51213    
    146000   279.09192      0.0018359364   0.62377818     692.43475     -2.5237046      689.91104    
    147000   301.29876      0.0018359364   0.11950628     747.53053     -1.0496425      746.48089    
    148000   312.44215      0.0018359364   2.6690089      775.17758     -1.6689799      773.5086     
    149000   295.06976      0.0018359364   2.5708066      732.0762      -2.0788114      729.99739    
    150000   294.05886      0.0018359364   1.2431526      729.56815     -1.5884827      727.97966    
    151000   292.69988      0.0018359364  -0.11615768     726.19647     -1.700685       724.49579    
    152000   311.33742      0.0018359364   1.540706       772.43673     -3.1287609      769.30797    
    153000   305.67354      0.0018359364   1.795019       758.38447     -2.0945702      756.2899     
    154000   300.16165      0.0018359364   1.1034435      744.70934     -1.6919312      743.01741    
    155000   297.50466      0.0018359364  -0.061030788    738.11725     -4.0110914      734.10616    
    156000   298.82055      0.0018359364   0.35810217     741.38201     -6.3196399      735.06237    
    157000   292.35335      0.0018359364   3.3439022      725.33671     -3.7181106      721.6186     
    158000   297.19798      0.0018359364   0.232242       737.35639     -4.989077       732.36731    
    159000   307.72607      0.0018359364   0.47700458     763.47686     -2.4444558      761.03241    
    160000   303.19154      0.0018359364   1.0749092      752.22657     -2.7965956      749.42998    
    161000   289.55219      0.0018359364   2.4133027      718.38696     -2.22383        716.16313    
    162000   300.47165      0.0018359364  -0.33600971     745.47845     -2.0927416      743.38571    
    163000   312.476        0.0018359364   1.1128859      775.26157     -3.1096311      772.15194    
    164000   298.69818      0.0018359364   1.2209016      741.07841     -3.0280012      738.05041    
    165000   294.86547      0.0018359364   1.2961646      731.56936     -2.3370944      729.23226    
    166000   303.5498       0.0018359364   0.1019818      753.11542     -3.2644219      749.851      
    167000   318.13189      0.0018359364   0.85919316     789.29399     -5.161915       784.13208    
    168000   291.05232      0.0018359364   1.5157196      722.10884     -4.3407486      717.76809    
    169000   300.75315      0.0018359364   0.11427227     746.17686     -6.3055274      739.87133    
    170000   322.35941      0.0018359364   1.9352744      799.78257     -4.4994407      795.28313    
    171000   294.97966      0.0018359364   2.1773845      731.85268     -4.9210482      726.93163    
    172000   291.31085      0.0018359364   1.0312818      722.75025     -2.6331668      720.11709    
    173000   295.99987      0.0018359364   1.0085656      734.38383     -4.4763274      729.9075     
    174000   303.62354      0.0018359364   0.90855944     753.29836     -4.7416931      748.55667    
    175000   292.44837      0.0018359364   1.0504483      725.57246     -2.8521313      722.72033    
    176000   306.84126      0.0018359364   1.1628334      761.28163     -1.547763       759.73387    
    177000   285.49192      0.0018359364   0.87938907     708.31331     -3.1885464      705.12477    
    178000   305.91494      0.0018359364   0.95192931     758.9834      -2.1785727      756.80483    
    179000   299.8898       0.0018359364   2.5934042      744.03485     -2.9567053      741.07815    
    180000   290.71003      0.0018359364  -0.82449052     721.25961     -1.7640624      719.49554    
    181000   321.82909      0.0018359364  -1.3137972      798.46684     -2.4920668      795.97477    
    182000   312.27176      0.0018359364   1.02268        774.75484     -1.6979168      773.05693    
    183000   299.46455      0.0018359364   1.6824231      742.97981     -1.4909967      741.48881    
    184000   291.65948      0.0018359364   1.634505       723.61521     -2.057048       721.55817    
    185000   292.30875      0.0018359364   0.12812773     725.22607     -3.4523776      721.77369    
    186000   308.84299      0.0018359364   0.078418827    766.24796     -2.7948421      763.45312    
    187000   299.70391      0.0018359364   1.6373132      743.57367     -5.0305815      738.54309    
    188000   284.94996      0.0018359364   0.31707059     706.9687      -2.4103164      704.55838    
    189000   302.95369      0.0018359364   0.74758833     751.63646     -4.0092659      747.6272     
    190000   300.31848      0.0018359364   2.480497       745.09844     -3.8553771      741.24306    
    191000   298.54682      0.0018359364   1.6126765      740.70288     -1.5996068      739.10328    
    192000   289.62218      0.0018359364   0.98682573     718.56062     -1.6197352      716.94089    
    193000   303.31301      0.0018359364   0.34896979     752.52794     -2.6686418      749.8593     
    194000   306.07789      0.0018359364   1.1918247      759.38767     -2.9077034      756.47997    
    195000   296.6399       0.0018359364   1.4823644      735.97178     -3.1120349      732.85974    
    196000   292.20922      0.0018359364  -0.50131745     724.97913     -2.1290653      722.85006    
    197000   308.34111      0.0018359364   1.0252392      765.0028      -3.1786554      761.82415    
    198000   308.14885      0.0018359364   1.7908642      764.5258      -2.5299724      761.99583    
    199000   292.508        0.0018359364   2.9660938      725.72042     -4.103448       721.61697    
    200000   289.90225      0.0018359364  -0.12798295     719.25546     -4.7957294      714.45973    
    201000   313.86872      0.0018359364   0.43464679     778.71696     -3.5493881      775.16757    
    202000   300.14989      0.0018359364   2.4826339      744.68016     -3.4479864      741.23217    
    203000   281.03072      0.0018359364   0.061978627    697.24497     -1.6863634      695.5586     
    204000   306.7329       0.0018359364   0.68931054     761.01278     -0.878058       760.13472    
    205000   305.64054      0.0018359364   1.5592888      758.3026      -0.6041742      757.69843    
    206000   284.44764      0.0018359364   2.1529679      705.72243     -2.7354532      702.98698    
    207000   289.31883      0.0018359364  -0.1669587      717.80798     -2.3202328      715.48775    
    208000   286.92048      0.0018359364   0.89490434     711.85762     -2.3826028      709.47502    
    209000   308.68388      0.0018359364   0.7085007      765.85322     -1.5246276      764.32859    
    210000   291.83294      0.0018359364   4.0530464      724.04556     -2.4186613      721.6269     
    211000   293.03153      0.0018359364   2.3147753      727.01931     -2.1203669      724.89894    
    212000   303.49803      0.0018359364  -1.3036898      752.98697     -4.3943943      748.59258    
    213000   294.20927      0.0018359364   1.2731439      729.94131     -4.2785167      725.6628     
    214000   293.36754      0.0018359364   1.5043677      727.85294     -2.9675661      724.88538    
    215000   319.96256      0.0018359364  -3.6964984      793.83594     -3.1553847      790.68055    
    216000   302.64543      0.0018359364   1.7261729      750.87164     -3.2331317      747.63851    
    217000   292.72241      0.0018359364   3.1997794      726.25237     -3.0325188      723.21985    
    218000   301.65123      0.0018359364  -1.2865981      748.405       -2.9603267      745.44468    
    219000   310.33955      0.0018359364   0.45872597     769.96098     -4.8043503      765.15663    
    220000   302.29037      0.0018359364   2.535033       749.99075     -3.6412422      746.3495     
    221000   298.77617      0.0018359364   1.602331       741.27191     -2.3731115      738.8988     
    222000   296.05565      0.0018359364  -1.0235568      734.52222     -1.3726249      733.1496     
    223000   304.3889       0.0018359364   2.6868669      755.19724     -4.1719239      751.02532    
    224000   288.92119      0.0018359364   2.7098741      716.82145     -1.624966       715.19648    
    225000   302.35066      0.0018359364  -0.47486096     750.14032     -2.3419725      747.79835    
    226000   306.93509      0.0018359364   3.880406       761.51442     -2.4340642      759.08036    
    227000   285.47804      0.0018359364   5.7878955      708.2789      -1.4542011      706.8247     
    228000   303.22718      0.0018359364   0.095924263    752.315       -2.1062899      750.20871    
    229000   316.53465      0.0018359364  -0.59406773     785.33118     -1.3417258      783.98946    
    230000   285.26453      0.0018359364   3.3086051      707.74917     -1.3151615      706.43401    
    231000   291.34889      0.0018359364   0.68539777     722.84464     -2.5922075      720.25243    
    232000   312.43774      0.0018359364  -0.54012416     775.16666     -1.8626238      773.30403    
    233000   310.11832      0.0018359364   0.83609941     769.41211     -3.3925762      766.01953    
    234000   294.73398      0.0018359364   1.4644285      731.24313     -3.1515539      728.09157    
    235000   306.12059      0.0018359364  -1.3490475      759.49363     -2.8872177      756.60641    
    236000   295.77008      0.0018359364   1.4242763      733.81373     -3.7262635      730.08747    
    237000   302.46032      0.0018359364   2.6603368      750.4124      -2.5079512      747.90445    
    238000   291.64154      0.0018359364   5.5993289      723.5707      -5.9444503      717.62625    
    239000   310.44921      0.0018359364   3.2184395      770.23305     -5.9245427      764.30851    
    240000   291.98446      0.0018359364   3.0188868      724.42149     -4.974896       719.44659    
    241000   291.73985      0.0018359364   1.3708761      723.81462     -2.6840392      721.13058    
    242000   300.21933      0.0018359364  -1.6925272      744.85244     -3.290449       741.56199    
    243000   311.52505      0.0018359364  -0.5699369      772.90225     -2.5326062      770.36964    
    244000   308.89076      0.0018359364   2.2088888      766.36649     -3.1560546      763.21044    
    245000   292.51158      0.0018359364   2.6981263      725.7293      -2.7074173      723.02189    
    246000   298.37596      0.0018359364   0.57090291     740.27899     -2.5385289      737.74046    
    247000   308.24482      0.0018359364   0.71869779     764.7639      -3.5215147      761.24238    
    248000   306.9218       0.0018359364   0.9606641      761.48145     -2.5477492      758.9337     
    249000   292.95679      0.0018359364   2.0732891      726.83388     -3.0896413      723.74424    
    250000   299.93742      0.0018359364   0.48812374     744.15302     -2.4007124      741.75231    
    251000   303.13059      0.0018359364  -0.27561877     752.07534     -3.2513191      748.82402    
    252000   302.68349      0.0018359364   1.0005687      750.96608     -2.5189951      748.44709    
    253000   288.69224      0.0018359364   2.2531246      716.2534      -1.4640111      714.78939    
    254000   294.3832       0.0018359364   0.59897043     730.37283     -1.9397049      728.43313    
    255000   301.90065      0.0018359364   0.17130766     749.02384     -2.1706975      746.85314    
    256000   322.23022      0.0018359364  -0.18118969     799.46206     -1.8180268      797.64404    
    257000   298.71448      0.0018359364   1.4147488      741.11887     -2.563514       738.55535    
    258000   280.53446      0.0018359364   1.3191886      696.01373     -0.32447694     695.68925    
    259000   314.69039      0.0018359364   0.048643422    780.75554     -2.113338       778.6422     
    260000   306.45997      0.0018359364   2.4263298      760.33563     -1.9660355      758.36959    
    261000   286.97983      0.0018359364   1.0751015      712.00488     -2.9730519      709.03182    
    262000   288.32849      0.0018359364   0.93469456     715.35094     -1.3666859      713.98425    
    263000   306.28865      0.0018359364   0.91353599     759.91059     -2.4596328      757.45095    
    264000   301.72875      0.0018359364   1.9449399      748.59736     -2.5626134      746.03474    
    265000   291.71341      0.0018359364   0.94807921     723.74901     -1.440403       722.30861    
    266000   297.20678      0.0018359364   0.67698838     737.37821     -1.1655079      736.2127     
    267000   300.77793      0.0018359364   0.961605       746.23833     -1.0359212      745.20241    
    268000   309.61671      0.0018359364   1.3297317      768.1676      -1.9369909      766.23061    
    269000   288.55131      0.0018359364   1.0324159      715.90375     -2.0646197      713.83913    
    270000   299.324        0.0018359364   0.52578783     742.63109     -1.7837143      740.84738    
    271000   310.96961      0.0018359364   0.50581099     771.52418     -3.3536509      768.17053    
    272000   303.8308       0.0018359364   1.0128263      753.81258     -2.8653581      750.94722    
    273000   285.85007      0.0018359364   0.74339603     709.2019      -2.1516163      707.05028    
    274000   296.48118      0.0018359364   0.94489466     735.57798     -2.4255418      733.15244    
    275000   302.48761      0.0018359364   1.0328353      750.48009     -3.1758403      747.30425    
    276000   302.33209      0.0018359364   1.2674204      750.09424     -2.1627904      747.93145    
    277000   301.05467      0.0018359364   1.1311785      746.92492     -2.9664158      743.95851    
    278000   295.85195      0.0018359364   0.58931763     734.01685     -1.5252809      732.49157    
    279000   307.04991      0.0018359364   1.1218487      761.79929     -3.0949936      758.7043     
    280000   308.52793      0.0018359364   2.0420911      765.4663      -3.0247508      762.44155    
    281000   296.0809       0.0018359364   0.65238584     734.58487     -1.442549       733.14232    
    282000   290.10873      0.0018359364   1.5116253      719.76776     -1.3330954      718.43467    
    283000   287.92345      0.0018359364   0.32017494     714.34602     -2.4739647      711.87205    
    284000   303.15784      0.0018359364   1.6068945      752.14296     -2.3586359      749.78432    
    285000   296.31652      0.0018359364   1.1127173      735.16944     -1.7013546      733.46809    
    286000   300.27189      0.0018359364  -1.5710335      744.98284     -1.2820991      743.70074    
    287000   293.49644      0.0018359364   1.5458448      728.17275     -2.7016803      725.47107    
    288000   296.06674      0.0018359364   1.3921724      734.54974     -2.9625091      731.58723    
    289000   291.45877      0.0018359364  -1.6551391      723.11725     -4.1786549      718.93859    
    290000   299.39615      0.0018359364   1.3064731      742.81009     -4.3412557      738.46883    
    291000   307.14477      0.0018359364   1.9445594      762.03464     -2.8205675      759.21408    
    292000   301.03062      0.0018359364   0.17050348     746.86527     -2.8275105      744.03776    
    293000   296.51599      0.0018359364  -0.44967114     735.66435     -5.0065636      730.65778    
    294000   297.2668       0.0018359364   1.4862778      737.52713     -4.8447738      732.68236    
    295000   298.98755      0.0018359364   3.0288859      741.79636     -3.76747        738.02889    
    296000   301.74668      0.0018359364   0.84262373     748.64182     -1.7553359      746.88649    
    297000   301.09287      0.0018359364  -0.23611662     747.01971     -2.2360719      744.78364    
    298000   293.73898      0.0018359364   2.1223298      728.7745      -3.1895421      725.58495    
    299000   302.07793      0.0018359364   2.3675106      749.46366     -4.5521914      744.91147    
    300000   303.11057      0.0018359364  -0.81740827     752.02567     -3.7516019      748.27407    
    301000   297.94489      0.0018359364  -0.6681919      739.20948     -5.6070809      733.6024     
    302000   287.87044      0.0018359364   2.1855928      714.2145      -4.9858213      709.22868    
    303000   299.56235      0.0018359364   0.82986612     743.22244     -4.133519       739.08892    
    304000   302.4895       0.0018359364   0.62226177     750.48479     -3.9582851      746.52651    
    305000   301.32024      0.0018359364   1.5788726      747.58383     -3.9824088      743.60142    
    306000   298.13135      0.0018359364   2.1610248      739.67211     -2.0987584      737.57335    
    307000   304.62659      0.0018359364   0.86475042     755.78696     -2.9036889      752.88327    
    308000   305.17845      0.0018359364   0.90342776     757.15616     -3.5620351      753.59412    
    309000   297.4155       0.0018359364   0.95107095     737.89606     -2.5770497      735.31901    
    310000   297.62818      0.0018359364   1.0787276      738.42373     -3.0664538      735.35728    
    311000   297.10258      0.0018359364   0.98161801     737.1197      -4.3795055      732.74019    
    312000   306.27167      0.0018359364   0.93723794     759.86846     -3.9270497      755.94141    
    313000   294.39559      0.0018359364   1.2071542      730.40358     -3.3394105      727.06417    
    314000   304.03709      0.0018359364   1.1282518      754.3244      -1.9063298      752.41807    
    315000   302.89921      0.0018359364   1.0363887      751.50129     -2.4436604      749.05763    
    316000   306.20018      0.0018359364   0.95442181     759.69108     -4.2104024      755.48068    
    317000   298.2811       0.0018359364   1.0509346      740.04363     -2.5126209      737.53101    
    318000   295.058        0.0018359364   1.1837711      732.04704     -4.02876        728.01828    
    319000   310.09006      0.0018359364   1.4277202      769.34199     -5.2901998      764.05179    
    320000   306.83897      0.0018359364   0.6789077      761.27594     -2.867638       758.4083     
    321000   300.6593       0.0018359364   0.42479571     745.94402     -4.405755       741.53826    
    322000   295.20047      0.0018359364   2.1776132      732.40051     -3.4875897      728.91292    
    323000   301.16527      0.0018359364   0.86453371     747.19935     -4.2386281      742.96072    
    324000   304.64883      0.0018359364  -0.34863811     755.84214     -4.8149292      751.02721    
    325000   301.41987      0.0018359364  -0.09222        747.83102     -5.7617337      742.06928    
    326000   300.96117      0.0018359364   2.4727179      746.69297     -4.6413475      742.05162    
    327000   300.72963      0.0018359364   0.41402609     746.1185      -5.1004255      741.01807    
    328000   307.17899      0.0018359364  -2.6164066      762.11954     -6.4495172      755.67003    
    329000   300.74807      0.0018359364   1.1791418      746.16425     -5.4234733      740.74078    
    330000   306.13294      0.0018359364   2.890899       759.52426     -5.2606999      754.26356    
    331000   291.02012      0.0018359364  -0.35813485     722.02895     -5.3763955      716.65255    
    332000   285.23077      0.0018359364   1.6995968      707.6654      -4.7496786      702.91572    
    333000   299.07151      0.0018359364   1.8433267      742.00467     -5.5733208      736.43135    
    334000   312.6904       0.0018359364  -0.18812936     775.79351     -2.4126324      773.38087    
    335000   302.6337       0.0018359364   0.35985234     750.84255     -3.7968203      747.04573    
    336000   282.84337      0.0018359364   2.4262448      701.7422      -3.2894901      698.45271    
    337000   303.22344      0.0018359364   1.3801024      752.3057      -2.2873314      750.01837    
    338000   308.57751      0.0018359364  -1.7364292      765.58931     -2.915355       762.67395    
    339000   294.27262      0.0018359364   0.54197364     730.09848     -2.2665846      727.8319     
    340000   293.79302      0.0018359364   1.9815459      728.90858     -3.7523015      725.15628    
    341000   308.72971      0.0018359364   3.1664093      765.96691     -1.6281054      764.33881    
    342000   303.48719      0.0018359364   0.93257092     752.96008     -1.7106389      751.24944    
    343000   294.81385      0.0018359364  -2.9104346      731.4413      -2.1198643      729.32143    
    344000   299.98542      0.0018359364  -0.31485841     744.2721      -4.4356545      739.83645    
    345000   290.15685      0.0018359364  -0.58619066     719.88715     -3.3476316      716.53952    
    346000   291.70099      0.0018359364   1.785935       723.7182      -3.4105528      720.30764    
    347000   310.81098      0.0018359364   1.8392429      771.13062     -4.2860293      766.84459    
    348000   303.63703      0.0018359364   1.0293752      753.33185     -3.9662957      749.36555    
    349000   279.39267      0.0018359364  -1.3769902      693.18092     -5.7687058      687.41221    
    350000   300.2244       0.0018359364   1.5561829      744.86502     -3.3355537      741.52946    
    351000   300.86449      0.0018359364   1.8361518      746.45309     -5.2726996      741.18039    
    352000   306.4443       0.0018359364   2.4324823      760.29675     -3.707697       756.58905    
    353000   308.29086      0.0018359364  -1.742238       764.87813     -2.4018598      762.47627    
    354000   292.69594      0.0018359364   0.74338513     726.1867      -2.4305133      723.75618    
    355000   286.11199      0.0018359364   1.969851       709.85174     -4.167939       705.6838     
    356000   304.35246      0.0018359364   1.4406124      755.10685     -5.6768131      749.43004    
    357000   316.07426      0.0018359364   0.91381112     784.18895     -4.9181691      779.27078    
    358000   296.40022      0.0018359364   0.67627563     735.37713     -5.6291211      729.74801    
    359000   294.74637      0.0018359364   0.23074985     731.27388     -4.7748237      726.49905    
    360000   298.81249      0.0018359364   0.24096986     741.36203     -3.9535047      737.40852    
    361000   292.20818      0.0018359364   1.3766811      724.97654     -3.8886091      721.08793    
    362000   294.75605      0.0018359364   1.5131115      731.29788     -4.3825203      726.91536    
    363000   307.03899      0.0018359364   0.97270248     761.77219     -3.2832086      758.48898    
    364000   307.87628      0.0018359364   0.54382753     763.84954     -2.0871787      761.76236    
    365000   290.21067      0.0018359364  -0.84213786     720.02066     -1.4313563      718.5893     
    366000   293.22575      0.0018359364   1.5013016      727.50117     -2.0365439      725.46463    
    367000   300.05493      0.0018359364  -0.71153672     744.44455     -1.0807588      743.36379    
    368000   324.90978      0.0018359364   1.6096212      806.11013     -0.97651515     805.13361    
    369000   298.70819      0.0018359364   0.41616888     741.10326     -1.6102148      739.49305    
    370000   287.65156      0.0018359364   2.1866409      713.67144     -2.3573944      711.31404    
    371000   300.40525      0.0018359364   1.5888612      745.31371     -2.6708255      742.64289    
    372000   314.22048      0.0018359364   0.74499801     779.58967     -4.2335787      775.35609    
    373000   302.45005      0.0018359364   0.88418453     750.38692     -2.1330071      748.25391    
    374000   293.22254      0.0018359364   1.8018537      727.4932      -2.707158       724.78604    
    375000   311.46714      0.0018359364   1.1328819      772.75855     -2.2151408      770.54341    
    376000   300.14016      0.0018359364   1.2583925      744.656       -3.128914       741.52709    
    377000   291.56941      0.0018359364   0.97429629     723.39174     -3.0924812      720.29926    
    378000   297.36141      0.0018359364   0.67160736     737.76185     -1.8371539      735.92469    
    379000   312.37009      0.0018359364   0.95286497     774.9988      -2.4755147      772.52329    
    380000   310.59322      0.0018359364   1.07227        770.59033     -2.645203       767.94513    
    381000   297.54867      0.0018359364   1.2095452      738.22645     -2.7019649      735.52448    
    382000   296.39026      0.0018359364   1.1325636      735.35241     -0.46907219     734.88334    
    383000   290.24457      0.0018359364   1.1483856      720.10478     -2.8295333      717.27525    
    384000   303.92733      0.0018359364   1.056653       754.05208     -2.5547239      751.49735    
    385000   309.16075      0.0018359364   1.0671576      767.03633     -0.61897119     766.41736    
    386000   279.68601      0.0018359364   0.71731549     693.90871     -2.8319737      691.07673    
    387000   297.88592      0.0018359364   1.3365633      739.06317     -2.1164964      736.94667    
    388000   321.81395      0.0018359364   1.2012164      798.42929     -4.9885663      793.44072    
    389000   302.12885      0.0018359364   0.89992935     749.59        -2.0369106      747.55309    
    390000   278.79299      0.0018359364   0.87626968     691.6931      -3.4151884      688.27792    
    391000   299.11633      0.0018359364   1.1313648      742.11585     -1.8632001      740.25265    
    392000   300.72986      0.0018359364   1.1451973      746.11906     -2.556363       743.5627     
    393000   305.94771      0.0018359364   1.3556216      759.0647      -2.1483198      756.91638    
    394000   304.17011      0.0018359364   0.77558303     754.65444     -2.1596274      752.49481    
    395000   299.54627      0.0018359364   0.5044558      743.18254     -3.1874335      739.99511    
    396000   299.28132      0.0018359364   1.0747299      742.52521     -3.5774252      738.94779    
    397000   298.05893      0.0018359364   2.182036       739.49242     -2.566893       736.92553    
    398000   296.46288      0.0018359364   1.1652046      735.53258     -1.619059       733.91352    
    399000   300.54662      0.0018359364  -1.2458225      745.66444     -1.912887       743.75155    
    400000   301.00858      0.0018359364   1.3777686      746.8106      -1.6445574      745.16604    
    401000   306.6033       0.0018359364   1.2126835      760.69124     -2.0737409      758.6175     
    402000   297.54952      0.0018359364   0.87975323     738.22855     -2.1932266      736.03532    
    403000   294.07388      0.0018359364   0.88580628     729.60541     -3.8685933      725.73682    
    404000   302.11038      0.0018359364   1.7470174      749.54417     -4.8761565      744.66802    
    405000   304.69642      0.0018359364   0.89723548     755.9602      -3.4039735      752.55623    
    406000   306.76753      0.0018359364   0.89439765     761.0987      -3.6373054      757.4614     
    407000   295.85129      0.0018359364   0.99028687     734.01521     -2.9065699      731.10864    
    408000   288.40413      0.0018359364   0.9956994      715.5386      -3.744921       711.79368    
    409000   296.0472       0.0018359364   1.1459924      734.50126     -1.8552635      732.646      
    410000   314.53313      0.0018359364   0.52613565     780.36537     -1.9512793      778.41409    
    411000   292.72433      0.0018359364   0.73710626     726.25713     -1.7314891      724.52564    
    412000   289.93344      0.0018359364   1.4153825      719.33287     -3.303006       716.02986    
    413000   300.50499      0.0018359364   1.3230796      745.56117     -3.5642371      741.99693    
    414000   313.44062      0.0018359364  -1.2936196      777.65482     -3.6939723      773.96085    
    415000   296.75541      0.0018359364   1.3885965      736.25836     -2.5577769      733.70058    
    416000   294.15551      0.0018359364   2.0702563      729.80794     -3.3911218      726.41682    
    417000   306.10875      0.0018359364   1.589083       759.46424     -4.5626991      754.90154    
    418000   307.61004      0.0018359364   0.27889209     763.189       -2.4585316      760.73046    
    419000   302.80229      0.0018359364   1.0043605      751.26083     -2.8754227      748.38541    
    420000   296.15422      0.0018359364   1.3116396      734.76678     -2.7287827      732.038      
    421000   312.81008      0.0018359364   1.2651697      776.09043     -2.6329662      773.45746    
    422000   297.72844      0.0018359364   0.53369744     738.67247     -1.6789093      736.99356    
    423000   293.83449      0.0018359364   1.7767425      729.01147     -1.7860557      727.22541    
    424000   313.45066      0.0018359364   2.3898256      777.67972     -2.6627365      775.01698    
    425000   321.41377      0.0018359364   1.3468384      797.43642     -2.2198184      795.21661    
    426000   302.59687      0.0018359364   0.61428452     750.75117     -3.7296307      747.02154    
    427000   292.98393      0.0018359364   0.99032285     726.9012      -2.3803548      724.52085    
    428000   293.38006      0.0018359364   0.74218113     727.88401     -4.3801181      723.50389    
    429000   311.9799       0.0018359364   1.3423328      774.03072     -2.5866971      771.44402    
    430000   297.62534      0.0018359364   1.0890144      738.41668     -4.2786476      734.13804    
    431000   292.22849      0.0018359364   0.46750763     725.02694     -5.8866041      719.14034    
    432000   301.35988      0.0018359364   1.1938473      747.68218     -3.2424038      744.43977    
    433000   289.85788      0.0018359364   1.1856736      719.14538     -1.3362799      717.8091     
    434000   295.21249      0.0018359364   0.89484338     732.43032     -1.8962978      730.53403    
    435000   297.27003      0.0018359364   1.0183169      737.53513     -2.2044773      735.33066    
    436000   306.04209      0.0018359364   1.4739729      759.29885     -5.2451562      754.0537     
    437000   291.64978      0.0018359364   1.2937243      723.59113     -5.1486101      718.44252    
    438000   308.23636      0.0018359364   0.38846426     764.74292     -6.5585215      758.18439    
    439000   304.51387      0.0018359364   1.0801037      755.50731     -6.0912734      749.41604    
    440000   306.59896      0.0018359364   2.0293151      760.68047     -3.063382       757.61709    
    441000   293.37269      0.0018359364   1.1731069      727.86573     -3.2538539      724.61188    
    442000   296.55704      0.0018359364   0.88761672     735.76618     -2.8822526      732.88393    
    443000   301.84972      0.0018359364   0.39332784     748.89749     -2.9257753      745.97171    
    444000   310.72751      0.0018359364   1.5548815      770.92351     -2.8801764      768.04333    
    445000   283.87646      0.0018359364   1.6565444      704.30532     -1.3266751      702.97864    
    446000   292.80776      0.0018359364   0.41026475     726.46412     -2.4091108      724.05501    
    447000   304.94619      0.0018359364   0.9987571      756.5799      -2.8663432      753.71355    
    448000   305.27392      0.0018359364   1.0420427      757.393       -3.4969603      753.89604    
    449000   296.39423      0.0018359364   0.95089572     735.36225     -5.0305187      730.33173    
    450000   298.08445      0.0018359364   0.9701017      739.55573     -5.2979143      734.25781    
    451000   291.73685      0.0018359364   1.3652619      723.80717     -5.3660246      718.44115    
    452000   301.32066      0.0018359364   1.6332232      747.58487     -4.7842874      742.80059    
    453000   304.02207      0.0018359364   0.35649616     754.28713     -3.5303458      750.75679    
    454000   291.01783      0.0018359364   1.471328       722.02327     -4.0287891      717.99448    
    455000   303.30264      0.0018359364   1.1875158      752.50222     -1.8448193      750.6574     
    456000   290.82914      0.0018359364   1.8205696      721.55512     -3.1101781      718.44494    
    457000   305.95126      0.0018359364   0.3118822      759.07351     -2.4898795      756.58363    
    458000   305.54648      0.0018359364  -0.17650641     758.06925     -3.5516661      754.51758    
    459000   297.953        0.0018359364   0.98500969     739.2296      -2.447401       736.7822     
    460000   303.00132      0.0018359364   2.2986851      751.75462     -1.3317597      750.42286    
    461000   306.4727       0.0018359364   1.5324602      760.36722     -3.3357054      757.03151    
    462000   299.04587      0.0018359364   0.6277558      741.94105     -2.6223778      739.31868    
    463000   296.09948      0.0018359364   0.89350828     734.63097     -4.2583402      730.37263    
    464000   309.46132      0.0018359364   1.3184385      767.78206     -4.3491759      763.43289    
    465000   299.84187      0.0018359364   1.0045393      743.91593     -4.4626853      739.45325    
    466000   296.26545      0.0018359364   0.82460084     735.04276     -3.9979157      731.04484    
    467000   287.00227      0.0018359364   1.0482719      712.06055     -3.0306475      709.0299     
    468000   304.08481      0.0018359364   1.5107837      754.44278     -2.3504395      752.09234    
    469000   315.08496      0.0018359364   1.2961621      781.73447     -0.87951644     780.85495    
    470000   304.5468       0.0018359364   0.6908885      755.589       -2.0614057      753.5276     
    471000   276.79191      0.0018359364   1.3682788      686.72835     -1.790629       684.93772    
    472000   304.31658      0.0018359364   1.6715759      755.01782     -1.4980218      753.5198     
    473000   310.68165      0.0018359364  -0.70721672     770.80975     -3.9759308      766.83382    
    474000   292.41645      0.0018359364   0.90885727     725.49326     -3.0199445      722.47332    
    475000   307.99059      0.0018359364   1.9348476      764.13315     -1.0811098      763.05204    
    476000   304.10026      0.0018359364   0.99978321     754.48113     -1.8845895      752.59654    
    477000   301.03865      0.0018359364  -0.39724833     746.88518     -3.106807       743.77837    
    478000   294.53816      0.0018359364   1.823446       730.75729     -2.6063312      728.15096    
    479000   305.99486      0.0018359364   1.2729369      759.18169     -2.4432919      756.7384     
    480000   308.48422      0.0018359364  -3.4997998      765.35785     -3.9070051      761.45084    
    481000   280.3944       0.0018359364  -1.1146794      695.66624     -4.0787054      691.58754    
    482000   300.31619      0.0018359364   2.7592907      745.09274     -2.2044871      742.88825    
    483000   318.97808      0.0018359364  -2.2089579      791.39341     -3.0330891      788.36032    
    484000   288.91267      0.0018359364   0.98196409     716.8003      -4.3371121      712.46319    
    485000   313.2545       0.0018359364   4.320005       777.19304     -3.4990962      773.69394    
    486000   307.29193      0.0018359364  -0.33784297     762.39976     -3.5055045      758.89425    
    487000   299.55193      0.0018359364  -0.63889835     743.19659     -3.9930411      739.20355    
    488000   286.86431      0.0018359364   0.084060027    711.71826     -4.4328688      707.28539    
    489000   289.52886      0.0018359364   3.1221509      718.32908     -5.0675052      713.26158    
    490000   315.21372      0.0018359364   2.1299127      782.05394     -4.1584878      777.89545    
    491000   293.84442      0.0018359364   0.030142473    729.0361      -3.2835813      725.75252    
    492000   298.04198      0.0018359364   3.9342605      739.45036     -2.9711627      736.4792     
    493000   314.08449      0.0018359364   1.217058       779.25227     -3.7869573      775.46531    
    494000   294.33733      0.0018359364   0.30149326     730.25902     -2.7286895      727.53033    
    495000   292.23162      0.0018359364   1.1170978      725.0347      -4.1191521      720.91554    
    496000   296.08895      0.0018359364   0.87888497     734.60485     -3.0757349      731.52912    
    497000   294.45167      0.0018359364  -1.1723561      730.54271     -5.0552042      725.4875     
    498000   312.36635      0.0018359364   1.2600393      774.98953     -7.6507565      767.33877    
    499000   291.56103      0.0018359364   1.1252872      723.37095     -4.8143041      718.55664    
    500000   293.72399      0.0018359364   0.89604627     728.73732     -2.5567096      726.18061    
    501000   298.54723      0.0018359364   1.0192632      740.7039      -4.9392595      735.76464    
    502000   303.93154      0.0018359364   0.78712541     754.06254     -2.9503411      751.1122     
    503000   299.27651      0.0018359364   1.0790899      742.51326     -4.9068529      737.60641    
    504000   296.9595       0.0018359364   1.2788276      736.7647      -4.9241143      731.84059    
    505000   317.32509      0.0018359364   0.95270096     787.2923      -3.7508558      783.54145    
    506000   310.65229      0.0018359364   1.1538812      770.73688     -4.6131271      766.12376    
    507000   309.64787      0.0018359364   0.57883558     768.2449      -3.3555947      764.8893     
    508000   278.02458      0.0018359364   0.73655728     689.78664     -2.0849547      687.70169    
    509000   293.25601      0.0018359364   0.95729662     727.57625     -2.9129068      724.66335    
    510000   307.01793      0.0018359364  -0.033066149    761.71995     -2.6285233      759.09143    
    511000   307.60326      0.0018359364   1.7241699      763.17217     -4.0684629      759.10371    
    512000   290.65073      0.0018359364   0.14532132     721.11247     -3.3743503      717.73812    
    513000   304.14993      0.0018359364   0.17727192     754.60436     -5.6229154      748.98144    
    514000   286.64605      0.0018359364   1.593704       711.17675     -4.6837385      706.49301    
    515000   303.07662      0.0018359364   0.98476948     751.94146     -3.0271293      748.91433    
    516000   304.68554      0.0018359364  -0.082435972    755.93322     -2.0493978      753.88382    
    517000   311.30409      0.0018359364   0.77672522     772.35402     -1.2892961      771.06472    
    518000   294.3829       0.0018359364   2.7864044      730.37208     -3.3722148      726.99986    
    519000   307.53785      0.0018359364   0.85230188     763.00988     -3.0541587      759.95572    
    520000   310.80914      0.0018359364   0.18587853     771.12604     -3.7717287      767.35431    
    521000   312.3225       0.0018359364   0.92257687     774.88074     -2.0234723      772.85726    
    522000   298.30779      0.0018359364   1.6947391      740.10985     -3.3997102      736.71014    
    523000   299.40824      0.0018359364  -1.2033417      742.84009     -3.1025747      739.73752    
    524000   305.17206      0.0018359364   0.98874744     757.14028     -1.4879474      755.65234    
    525000   290.63995      0.0018359364   2.4162328      721.08574     -2.1655017      718.92023    
    526000   293.63781      0.0018359364   0.35463986     728.52349     -2.5595659      725.96393    
    527000   304.33081      0.0018359364  -0.28257811     755.05313     -3.3267304      751.7264     
    528000   304.10943      0.0018359364  -0.065518955    754.50388     -2.4616136      752.04227    
    529000   307.00625      0.0018359364   1.9089911      761.69096     -1.751987       759.93897    
    530000   291.76979      0.0018359364   2.8373271      723.8889      -0.99499377     722.8939     
    531000   305.47797      0.0018359364   1.2386517      757.89926     -1.8424462      756.05682    
    532000   286.72184      0.0018359364  -1.0568381      711.36479     -1.7861978      709.57859    
    533000   313.2244       0.0018359364  -1.1610999      777.11836     -2.5109583      774.6074     
    534000   302.32019      0.0018359364   2.4008461      750.06474     -2.9151146      747.14962    
    535000   293.332        0.0018359364   0.76768761     727.76478     -4.880849       722.88393    
    536000   293.04154      0.0018359364  -1.5030882      727.04415     -5.1048425      721.93931    
    537000   307.4932       0.0018359364   2.068195       762.89911     -3.2677788      759.63133    
    538000   294.48189      0.0018359364   0.22991746     730.61768     -4.66037        725.95731    
    539000   286.71505      0.0018359364  -0.57102168     711.34795     -3.9476168      707.40033    
    540000   300.38965      0.0018359364   0.013258905    745.27501     -4.1596841      741.11533    
    541000   305.48915      0.0018359364   0.47466509     757.927       -3.4795726      754.44743    
    542000   302.17549      0.0018359364   2.2262418      749.70572     -2.8116831      746.89404    
    543000   288.15358      0.0018359364   1.1546288      714.91697     -2.5651211      712.35185    
    544000   307.55394      0.0018359364   0.27972527     763.04982     -2.5681943      760.48162    
    545000   310.76311      0.0018359364   0.70629339     771.01184     -4.2009755      766.81087    
    546000   290.64568      0.0018359364   1.1657229      721.09995     -2.7650614      718.33489    
    547000   298.43816      0.0018359364   1.229676       740.43329     -3.0096501      737.42364    
    548000   296.85471      0.0018359364   0.7554949      736.50472     -2.7869601      733.71776    
    549000   305.67632      0.0018359364   0.80654979     758.39138     -2.7655562      755.62582    
    550000   296.46756      0.0018359364   1.0231848      735.54419     -4.9217675      730.62242    
    551000   299.22467      0.0018359364   1.1003496      742.38466     -3.7727271      738.61193    
    552000   305.81361      0.0018359364   1.0574571      758.732       -4.2200157      754.51199    
    553000   312.8223       0.0018359364   1.1996091      776.12076     -2.9362736      773.18448    
    554000   291.77754      0.0018359364   0.69615625     723.90813     -2.9744348      720.93369    
    555000   281.42628      0.0018359364   1.102749       698.22636     -2.7896045      695.43676    
    556000   302.10481      0.0018359364   1.1541398      749.53036     -3.5211463      746.00922    
    557000   291.06803      0.0018359364   1.1449266      722.14782     -1.5942103      720.55361    
    558000   310.82403      0.0018359364   1.1852846      771.16298     -2.5442451      768.61873    
    559000   310.82284      0.0018359364   0.94859664     771.16003     -2.2578637      768.90216    
    560000   296.35054      0.0018359364   1.371024       735.25387     -2.4419749      732.81189    
    561000   283.75069      0.0018359364   0.87187331     703.99329     -3.8357389      700.15755    
    562000   307.13849      0.0018359364   0.98381805     762.01907     -4.1508922      757.86818    
    563000   317.22951      0.0018359364   1.2337125      787.05515     -3.7360172      783.31914    
    564000   297.81198      0.0018359364   0.98329013     738.87973     -4.4454782      734.43425    
    565000   292.91473      0.0018359364   1.1019422      726.72953     -4.0455155      722.68401    
    566000   312.52554      0.0018359364   1.1847359      775.38448     -5.9094008      769.47508    
    567000   306.45551      0.0018359364   1.0365875      760.32456     -4.2293435      756.09522    
    568000   294.58746      0.0018359364   0.91795461     730.87962     -3.695682       727.18393    
    569000   307.45485      0.0018359364   0.99487728     762.80395     -4.0614989      758.74246    
    570000   299.26256      0.0018359364   0.85165032     742.47866     -4.5555313      737.92313    
    571000   294.65701      0.0018359364   1.0674257      731.05217     -3.7460363      727.30614    
    572000   297.20867      0.0018359364   0.32875044     737.3829      -4.7348489      732.64805    
    573000   298.26764      0.0018359364   1.1895957      740.01023     -2.8681029      737.14213    
    574000   307.13985      0.0018359364   1.4663553      762.02245     -3.884683       758.13776    
    575000   306.93682      0.0018359364   0.49706816     761.51871     -3.4865022      758.03221    
    576000   297.49666      0.0018359364   0.90049606     738.09741     -2.8539389      735.24347    
    577000   299.6446       0.0018359364   2.1717992      743.42652     -3.9709018      739.45562    
    578000   304.92543      0.0018359364   2.3105083      756.52839     -2.9199997      753.6084     
    579000   305.23472      0.0018359364   0.61653086     757.29574     -2.5953996      754.70034    
    580000   287.11689      0.0018359364  -0.93230223     712.34493     -4.2436605      708.10127    
    581000   293.42077      0.0018359364   0.6120234      727.98502     -3.7791436      724.20587    
    582000   307.83358      0.0018359364   1.9256398      763.74359     -3.7952744      759.94831    
    583000   295.45987      0.0018359364  -0.38993724     733.04408     -4.2971323      728.74695    
    584000   288.95472      0.0018359364   0.90208322     716.90462     -3.6333797      713.27124    
    585000   312.03267      0.0018359364   3.0816571      774.16166     -4.610091       769.55157    
    586000   310.44231      0.0018359364  -0.5442894      770.21593     -2.132647       768.08328    
    587000   288.03483      0.0018359364   1.1852874      714.62234     -3.7275194      710.89482    
    588000   293.79444      0.0018359364   2.4765255      728.91211     -4.4836532      724.42846    
    589000   311.31095      0.0018359364   0.074882589    772.37104     -2.9719915      769.39905    
    590000   296.90872      0.0018359364  -0.25296525     736.63872     -4.3543111      732.28441    
    591000   292.28021      0.0018359364   1.5444863      725.15525     -5.3846643      719.77059    
    592000   315.99721      0.0018359364   0.87192644     783.9978      -2.8000363      781.19776    
    593000   294.90093      0.0018359364  -0.41261387     731.65733     -3.6219786      728.03535    
    594000   301.7434       0.0018359364   2.7598443      748.63369     -3.4501532      745.18354    
    595000   298.88687      0.0018359364   1.2252755      741.54656     -2.8796887      738.66688    
    596000   307.0028       0.0018359364   0.32717094     761.6824      -2.6641067      759.01829    
    597000   303.68609      0.0018359364   0.33592895     753.45356     -2.140757       751.31281    
    598000   296.84354      0.0018359364   1.5633976      736.47701     -4.4596283      732.01738    
    599000   300.82944      0.0018359364   1.1281364      746.36614     -1.5913015      744.77483    
    600000   302.04987      0.0018359364   0.26152989     749.39404     -4.5097052      744.88434    
    601000   297.565        0.0018359364   0.67011271     738.26696     -2.8953269      735.37163    
    602000   301.65731      0.0018359364   1.2763192      748.4201      -1.7860008      746.6341     
    603000   299.08708      0.0018359364   0.16228985     742.04329     -2.8418648      739.20142    
    604000   299.34167      0.0018359364  -2.43136        742.67492     -2.5739317      740.10099    
    605000   293.46682      0.0018359364   1.201124       728.09926     -0.74570598     727.35356    
    606000   302.25373      0.0018359364   2.0760507      749.89984     -1.5685683      748.33128    
    607000   312.71193      0.0018359364   1.4431478      775.84691     -2.6855254      773.16139    
    608000   304.39833      0.0018359364  -1.3379224      755.22064     -4.3352851      750.88536    
    609000   295.05473      0.0018359364   1.3190466      732.03892     -3.9809043      728.05801    
    610000   304.0548       0.0018359364   2.9261646      754.36835     -2.6022433      751.7661     
    611000   315.10252      0.0018359364   2.4032755      781.77803     -2.4877192      779.29031    
    612000   297.43682      0.0018359364   0.39125944     737.94894     -3.2067361      734.74221    
    613000   285.82881      0.0018359364   2.5338761      709.14916     -2.9178716      706.23129    
    614000   304.03541      0.0018359364   1.1802602      754.32023     -2.4582339      751.862      
    615000   308.21363      0.0018359364  -0.26121287     764.6865      -3.050964       761.63554    
    616000   295.14513      0.0018359364   2.1714025      732.26319     -1.2870523      730.97614    
    617000   296.10844      0.0018359364   1.6174103      734.65321     -2.698234       731.95498    
    618000   306.34256      0.0018359364   1.6065126      760.04435     -2.8866098      757.15774    
    619000   301.72214      0.0018359364  -1.0955489      748.58094      0.55075152     749.1317     
    620000   298.03272      0.0018359364   1.5419867      739.42738     -3.0150211      736.41236    
    621000   304.037        0.0018359364   2.167902       754.32418     -1.7589274      752.56526    
    622000   307.20736      0.0018359364   0.30000903     762.18994     -0.8730921      761.31685    
    623000   293.31276      0.0018359364   0.31492818     727.71704     -1.1255328      726.5915     
    624000   303.71946      0.0018359364   2.2840374      753.53635     -2.5779437      750.95841    
    625000   294.86767      0.0018359364   2.708317       731.57482     -2.7090683      728.86576    
    626000   296.68565      0.0018359364   2.3022872      736.08528     -3.3397139      732.74556    
    627000   309.38139      0.0018359364   0.39122276     767.58375     -5.6994658      761.88428    
    628000   296.42841      0.0018359364   0.26904348     735.44705     -4.3719832      731.07507    
    629000   300.9765       0.0018359364   1.8126626      746.731       -2.714977       744.01602    
    630000   296.43091      0.0018359364   0.81613008     735.45325     -4.6772207      730.77603    
    631000   310.04549      0.0018359364   1.4584344      769.23141     -3.7009829      765.53043    
    632000   316.28174      0.0018359364   0.19822319     784.70372     -4.7691679      779.93456    
    633000   303.90045      0.0018359364   0.68793913     753.98539     -5.4190404      748.56635    
    634000   283.7555       0.0018359364   2.6691694      704.00521     -3.6433367      700.36187    
    635000   305.88794      0.0018359364   1.3673708      758.91641     -3.3177646      755.59865    
    636000   320.87666      0.0018359364  -1.104554       796.10384     -3.6418039      792.46203    
    637000   297.01525      0.0018359364   1.2718395      736.90301     -3.2270439      733.67597    
    638000   293.66949      0.0018359364   1.7136594      728.6021      -2.3322934      726.26981    
    639000   297.04342      0.0018359364   2.1734079      736.9729      -5.2195577      731.75335    
    640000   304.11625      0.0018359364  -0.64772353     754.52079     -5.9827419      748.53805    
    641000   297.1965       0.0018359364   0.99490849     737.3527      -2.5822334      734.77047    
    642000   297.82351      0.0018359364   1.1333043      738.90834     -2.9595269      735.94881    
    643000   305.78144      0.0018359364   1.2975121      758.65218     -5.8279753      752.82421    
    644000   301.95542      0.0018359364  -0.36527713     749.15973     -2.6463662      746.51336    
    645000   301.38037      0.0018359364   1.7040343      747.73301     -2.5839967      745.14902    
    646000   289.01315      0.0018359364   1.5032029      717.04959     -1.6884123      715.36117    
    647000   302.25592      0.0018359364   0.34443959     749.90528     -3.5223189      746.38296    
    648000   304.0096       0.0018359364   0.51637081     754.2562      -4.0248851      750.23132    
    649000   296.47748      0.0018359364   1.0154968      735.56881     -4.4097874      731.15902    
    650000   298.16427      0.0018359364   0.9422404      739.75377     -4.4518162      735.30196    
    651000   300.41922      0.0018359364   1.0107873      745.34837     -4.4052072      740.94317    
    652000   304.19161      0.0018359364   1.0069824      754.70777     -4.575537       750.13223    
    653000   303.18763      0.0018359364   1.3388228      752.21686     -4.1299061      748.08695    
    654000   289.58536      0.0018359364   0.86391285     718.46926     -3.8191025      714.65016    
    655000   302.02685      0.0018359364   0.83428979     749.33693     -4.2230258      745.11391    
    656000   309.97234      0.0018359364   0.98069114     769.04992     -3.2353013      765.81462    
    657000   311.04057      0.0018359364   1.4423353      771.70023     -3.5084595      768.19177    
    658000   302.25241      0.0018359364   1.0633647      749.89656     -4.1728876      745.72368    
    659000   286.62289      0.0018359364   0.68945378     711.11929     -2.2726911      708.8466     
    660000   310.54241      0.0018359364   0.91708448     770.46428     -3.5186891      766.94559    
    661000   308.00616      0.0018359364   1.1576138      764.17178     -2.2146098      761.95717    
    662000   294.79683      0.0018359364   1.013575       731.39907     -3.3315421      728.06753    
    663000   295.4381       0.0018359364   0.79617355     732.99006     -3.7797844      729.21027    
    664000   289.02241      0.0018359364   0.98253744     717.07255     -2.0382472      715.03431    
    665000   306.7507       0.0018359364   1.0437685      761.05694     -1.4869086      759.57003    
    666000   313.30628      0.0018359364   1.4148495      777.32151     -3.8393109      773.4822     
    667000   291.35019      0.0018359364   1.1199892      722.84784     -2.3895054      720.45834    
    668000   292.41649      0.0018359364   0.99197308     725.49338     -3.6167873      721.8766     
    669000   301.86882      0.0018359364   1.0800799      748.94487     -1.9996887      746.94518    
    670000   290.58115      0.0018359364   0.87351298     720.93984     -2.5444916      718.39534    
    671000   299.48904      0.0018359364   0.98097898     743.04057     -1.1514199      741.88915    
    672000   301.64192      0.0018359364   1.3296739      748.38193     -2.8997446      745.48218    
    673000   309.35443      0.0018359364   1.0393983      767.51686     -1.6006636      765.9162     
    674000   293.90933      0.0018359364   1.262824       729.19715     -2.4954665      726.70169    
    675000   277.33299      0.0018359364   0.7489721      688.0708      -2.6398398      685.43096    
    676000   308.24797      0.0018359364   0.87845959     764.77171     -1.7739839      762.99773    
    677000   314.24614      0.0018359364   1.1027865      779.65333     -2.9186835      776.73464    
    678000   298.7513       0.0018359364   1.1955947      741.21022     -3.9277316      737.28248    
    679000   290.36439      0.0018359364   0.99853374     720.40206     -3.2794778      717.12258    
    680000   307.4675       0.0018359364   1.0778496      762.83535     -2.5101881      760.32517    
    681000   304.73116      0.0018359364   1.0446815      756.0464      -2.9268434      753.11956    
    682000   300.58276      0.0018359364   0.94565394     745.75412     -3.0937271      742.66039    
    683000   287.10375      0.0018359364   1.0399541      712.31232     -3.9973496      708.31497    
    684000   304.09313      0.0018359364   1.1374386      754.46345     -1.9255412      752.53791    
    685000   314.05651      0.0018359364   1.2234498      779.18285     -2.8928375      776.29002    
    686000   294.16216      0.0018359364   0.71379527     729.82444     -4.5278705      725.29657    
    687000   288.0893       0.0018359364   1.2103441      714.75751     -4.0939837      710.66352    
    688000   326.17037      0.0018359364   1.1126493      809.23769     -4.3400876      804.8976     
    689000   297.81266      0.0018359364   1.0319205      738.88142     -4.5559353      734.32548    
    690000   290.07053      0.0018359364   1.0617563      719.67298     -3.3652129      716.30777    
    691000   291.20976      0.0018359364   0.56836549     722.49945     -3.4821968      719.01725    
    692000   320.5433       0.0018359364   0.43697706     795.27678     -3.7450497      791.53173    
    693000   305.6975       0.0018359364   1.1984612      758.44392     -6.032785       752.41113    
    694000   290.95007      0.0018359364   0.57729833     721.85513     -5.4360155      716.41912    
    695000   302.21809      0.0018359364   0.8979685      749.81142     -4.0674524      745.74396    
    696000   290.35636      0.0018359364   2.1121307      720.38214     -3.8073798      716.57477    
    697000   303.56975      0.0018359364   0.54762646     753.16492     -3.7735042      749.39142    
    698000   302.14813      0.0018359364   0.07845451     749.63784     -3.7688938      745.86894    
    699000   311.0666       0.0018359364   1.1015491      771.76481     -3.7028909      768.06192    
    700000   293.8709       0.0018359364   1.3424077      729.1018      -4.0019309      725.09987    
    701000   292.89035      0.0018359364   0.95629436     726.66902     -3.6669688      723.00205    
    702000   308.82447      0.0018359364   0.25585298     766.20202     -4.2299354      761.97209    
    703000   306.57018      0.0018359364   1.1852992      760.60906     -3.5526301      757.05643    
    704000   302.78601      0.0018359364   1.672345       751.22043     -1.7586392      749.4618     
    705000   296.15694      0.0018359364   1.1979708      734.77352     -1.8937839      732.87974    
    706000   296.15276      0.0018359364  -1.7335631      734.76315     -1.701904       733.06125    
    707000   300.84992      0.0018359364   1.6855423      746.41693     -2.2950879      744.12185    
    708000   289.41522      0.0018359364   1.5340588      718.04714     -2.115758       715.93138    
    709000   298.94395      0.0018359364   1.3560008      741.68818     -2.8218752      738.86631    
    710000   310.85047      0.0018359364  -0.48105507     771.22859     -2.1159536      769.11263    
    711000   296.82463      0.0018359364   1.473106       736.4301      -2.4210258      734.00907    
    712000   298.36085      0.0018359364   2.5207987      740.2415      -2.948649       737.29286    
    713000   301.12089      0.0018359364   1.0180845      747.08924     -2.6724545      744.41678    
    714000   310.9218       0.0018359364  -1.5048935      771.40556     -3.6340058      767.77156    
    715000   300.53245      0.0018359364   1.3634479      745.62929     -3.5828616      742.04642    
    716000   304.03323      0.0018359364   1.5778973      754.31483     -3.5109394      750.80389    
    717000   292.15331      0.0018359364   1.3821038      724.84041     -3.7079333      721.13248    
    718000   295.53997      0.0018359364  -0.078897353    733.2428      -1.0091707      732.23363    
    719000   319.12562      0.0018359364   1.4410457      791.75947     -2.757363       789.00211    
    720000   301.27271      0.0018359364   2.916506       747.4659      -2.8224765      744.64342    
    721000   281.81143      0.0018359364   1.2203662      699.18193     -2.0193899      697.16254    
    722000   303.74196      0.0018359364   0.066626746    753.59218     -4.1543831      749.43779    
    723000   319.95192      0.0018359364   0.89189768     793.80953     -3.5895531      790.21998    
    724000   300.14013      0.0018359364   1.1941491      744.65593     -2.3593621      742.29657    
[...]
   3823000   298.41355      0.0018359364   1.1233676      740.37225     -1.0059212      739.36633    
   3824000   301.92438      0.0018359364   1.0440989      749.0827      -2.8742876      746.20841    
   3825000   304.83541      0.0018359364   1.2642673      756.30505     -4.4484853      751.85656    
   3826000   306.7272       0.0018359364   1.1633252      760.99863     -0.87754405     760.12109    
   3827000   299.3223       0.0018359364   1.033548       742.62687     -1.5328709      741.094      
   3828000   291.64579      0.0018359364   1.0411467      723.58125     -1.5892955      721.99195    
   3829000   311.87205      0.0018359364   0.95226554     773.76316     -1.3320172      772.43114    
   3830000   321.10414      0.0018359364   1.6191567      796.66823     -2.2654999      794.40273    
   3831000   299.95355      0.0018359364   1.9010074      744.19303     -0.83512634     743.35791    
   3832000   293.73671      0.0018359364   1.398902       728.76888     -1.3370597      727.43182    
   3833000   290.31099      0.0018359364   0.18924744     720.26957     -0.50080074     719.76877    
   3834000   313.48552      0.0018359364   0.63003807     777.76621     -3.3489883      774.41723    
   3835000   298.48546      0.0018359364   3.0506228      740.55065     -3.4327016      737.11794    
   3836000   288.73775      0.0018359364   1.3727197      716.36633     -1.9081392      714.45819    
   3837000   307.61852      0.0018359364   0.51175953     763.21003     -2.506378       760.70365    
   3838000   312.58182      0.0018359364   1.1380368      775.52411     -2.5577727      772.96634    
   3839000   286.88673      0.0018359364   1.1643326      711.77388     -2.2511415      709.52273    
   3840000   293.16982      0.0018359364   0.85738829     727.36241     -2.2621968      725.10021    
   3841000   318.50379      0.0018359364   0.76946098     790.21669     -2.1586217      788.05807    
   3842000   301.81517      0.0018359364   1.5433796      748.81175     -2.932071       745.87968    
   3843000   288.87689      0.0018359364   1.0303063      716.71152     -0.40542796     716.30609    
   3844000   317.9301       0.0018359364  -1.2933123      788.79335     -3.8435777      784.94977    
   3845000   298.67863      0.0018359364   1.5522308      741.02991     -5.1864058      735.8435     
   3846000   291.1712       0.0018359364   2.2201742      722.40377     -3.5354194      718.86835    
   3847000   289.98016      0.0018359364   1.3792395      719.44878     -4.9152339      714.53354    
   3848000   297.7396       0.0018359364  -0.27222348     738.70017     -5.480435       733.21973    
   3849000   312.30439      0.0018359364   0.7746754      774.8358      -3.434626       771.40117    
   3850000   294.98814      0.0018359364   1.9356679      731.87371     -3.1518054      728.7219     
   3851000   292.47808      0.0018359364   1.0927345      725.64619     -2.635665       723.01052    
   3852000   306.98275      0.0018359364   0.43152729     761.63267     -2.8611697      758.7715     
   3853000   307.44154      0.0018359364   0.44924447     762.77093     -3.317491       759.45344    
   3854000   312.86509      0.0018359364   3.8224985      776.22692     -2.4405982      773.78632    
   3855000   278.99523      0.0018359364   2.9784109      692.19485     -2.4578904      689.73696    
   3856000   297.56458      0.0018359364   0.27927512     738.26592     -2.7099585      735.55596    
   3857000   311.02687      0.0018359364   0.76163887     771.66624     -3.2410684      768.42517    
   3858000   309.58637      0.0018359364   0.9991747      768.09231     -2.0776767      766.01464    
   3859000   301.89559      0.0018359364   1.4059302      749.01128     -3.5203816      745.4909     
   3860000   293.53127      0.0018359364   1.7284415      728.25917     -3.0167057      725.24246    
   3861000   296.50476      0.0018359364   1.5919086      735.63648     -3.204009       732.43247    
   3862000   290.71948      0.0018359364  -1.5746596      721.28304     -5.780195       715.50284    
   3863000   298.235        0.0018359364  -0.1042204      739.92925     -3.3800897      736.54916    
   3864000   309.67422      0.0018359364   1.7081498      768.31028     -3.3695635      764.94071    
   3865000   299.05039      0.0018359364   5.5897733      741.95226     -4.6672716      737.28499    
   3866000   294.41395      0.0018359364   1.5194372      730.44913     -3.3420805      727.10705    
   3867000   293.42761      0.0018359364   0.7612879      728.00198     -1.6699851      726.33199    
   3868000   302.21224      0.0018359364   0.36128179     749.7969      -2.6091105      747.18778    
   3869000   310.01525      0.0018359364   2.5932568      769.15639     -2.7264772      766.42991    
   3870000   300.47948      0.0018359364   2.1665195      745.49787     -2.4540586      743.04382    
   3871000   282.97331      0.0018359364   0.34655031     702.06459     -2.8120695      699.25252    
   3872000   302.63604      0.0018359364  -0.48483196     750.84836     -3.6607502      747.18761    
   3873000   306.54619      0.0018359364   1.8590822      760.54955     -3.5630557      756.9865     
   3874000   304.91574      0.0018359364   2.3954386      756.50436     -2.7689456      753.73542    
   3875000   297.21668      0.0018359364   0.66369383     737.40279     -3.2340213      734.16877    
   3876000   299.1412       0.0018359364   0.82160703     742.17756     -2.737332       739.44023    
   3877000   306.5429       0.0018359364   1.7815567      760.5414      -2.4584501      758.08295    
   3878000   303.92003      0.0018359364   2.1081103      754.03397     -2.8142253      751.21974    
   3879000   284.01619      0.0018359364   1.6319967      704.65199     -2.3634157      702.28857    
   3880000   301.33499      0.0018359364   0.41247852     747.62041     -2.9977446      744.62267    
   3881000   297.62454      0.0018359364   2.159706       738.4147      -3.4699786      734.94472    
   3882000   297.9611       0.0018359364   1.573362       739.2497      -2.7637494      736.48595    
   3883000   297.42214      0.0018359364   0.51820516     737.91254     -1.4722195      736.44032    
   3884000   305.53826      0.0018359364   0.63419073     758.04885     -0.59592292     757.45293    
   3885000   302.22895      0.0018359364   0.93019177     749.83835     -2.1365146      747.70183    
   3886000   293.68031      0.0018359364   0.95727611     728.62894     -2.2862069      726.34273    
   3887000   292.54007      0.0018359364   0.98738944     725.79999     -4.308043       721.49194    
   3888000   298.07241      0.0018359364   1.0214557      739.52586     -3.1330805      736.39278    
   3889000   303.51895      0.0018359364   1.079378       753.03887     -4.2175684      748.8213     
   3890000   299.58254      0.0018359364   1.3375457      743.27254     -5.7534592      737.51908    
   3891000   298.99775      0.0018359364   0.83927776     741.82166     -2.9633628      738.8583     
   3892000   311.48521      0.0018359364   0.98601306     772.80338     -2.6131814      770.1902     
   3893000   304.3343       0.0018359364   1.1991989      755.06179     -2.0934573      752.96833    
   3894000   295.6067       0.0018359364   1.1879466      733.40836     -3.4733732      729.93499    
   3895000   302.54006      0.0018359364   0.50132593     750.61024     -4.4267533      746.18348    
   3896000   297.42933      0.0018359364  -0.10062389     737.93036     -1.3410833      736.58928    
   3897000   301.84698      0.0018359364   1.1357469      748.89068     -1.4363452      747.45434    
   3898000   297.31721      0.0018359364   1.1790109      737.65219     -2.3825841      735.26961    
   3899000   287.78883      0.0018359364   1.0257671      714.01201     -0.46150511     713.55051    
   3900000   304.64054      0.0018359364   1.0582814      755.82158      0.22234078     756.04392    
   3901000   304.3768       0.0018359364   0.79134356     755.16722     -0.70588436     754.46134    
   3902000   302.28204      0.0018359364   0.73063027     749.97008     -2.054241       747.91584    
   3903000   295.02388      0.0018359364   0.98262437     731.96238     -2.0458616      729.91651    
   3904000   301.03231      0.0018359364   0.96529626     746.86946     -3.3308789      743.53858    
   3905000   303.41695      0.0018359364   1.3014539      752.78582     -0.58536507     752.20045    
   3906000   303.4476       0.0018359364   0.43230931     752.86186     -1.5114069      751.35045    
   3907000   290.54831      0.0018359364  -0.18786074     720.85837     -1.3806936      719.47768    
   3908000   299.4669       0.0018359364   0.92579174     742.98563     -2.4928972      740.49273    
   3909000   292.33193      0.0018359364   1.2655898      725.28357     -3.7754688      721.5081     
   3910000   301.53254      0.0018359364   1.0421712      748.11054     -3.2795088      744.83103    
   3911000   311.41829      0.0018359364   0.71632257     772.63736     -4.0725263      768.56483    
   3912000   292.64879      0.0018359364   0.9522862      726.06972     -4.3593515      721.71037    
   3913000   294.92442      0.0018359364   1.1158184      731.71562     -6.8567183      724.8589     
   3914000   309.20888      0.0018359364   0.99512594     767.15575     -5.670389       761.48536    
   3915000   300.70364      0.0018359364   0.48655919     746.05403     -5.4335935      740.62043    
   3916000   290.568        0.0018359364   0.99640115     720.90723     -5.993617       714.91361    
   3917000   292.61174      0.0018359364   1.1737582      725.97779     -5.4427322      720.53505    
   3918000   303.26016      0.0018359364   1.2133013      752.3968      -3.7360039      748.6608     
   3919000   301.44434      0.0018359364   1.3929958      747.89171     -6.0853995      741.80631    
   3920000   293.13866      0.0018359364   0.27554048     727.28511     -4.4578914      722.82722    
   3921000   294.36814      0.0018359364   1.5774436      730.33547     -3.2845353      727.05094    
   3922000   303.42485      0.0018359364   1.3195988      752.80542     -3.6328556      749.17257    
   3923000   303.33669      0.0018359364   0.12156224     752.5867      -5.668757       746.91794    
   3924000   297.49645      0.0018359364   0.92764462     738.09689     -3.382025       734.71487    
   3925000   304.00132      0.0018359364   1.4359526      754.23567     -1.868156       752.36751    
   3926000   317.72813      0.0018359364   0.99504924     788.29224     -5.5807213      782.71152    
   3927000   290.73639      0.0018359364   0.66501142     721.32501     -3.8042937      717.52071    
   3928000   292.25032      0.0018359364   1.6748633      725.0811      -3.1506888      721.93042    
   3929000   312.18883      0.0018359364   1.3813968      774.54909     -1.9056369      772.64345    
   3930000   313.19167      0.0018359364   1.0488638      777.03716     -4.1354513      772.9017     
   3931000   290.40184      0.0018359364   1.0291123      720.49496     -2.7998713      717.69509    
   3932000   304.33914      0.0018359364   0.082928557    755.0738      -2.5019014      752.57189    
   3933000   305.99724      0.0018359364  -0.30117778     759.1876      -2.5354793      756.65212    
   3934000   291.54845      0.0018359364   1.2490775      723.33974     -1.7931614      721.54657    
   3935000   297.57689      0.0018359364   1.8497685      738.29647     -1.8261188      736.47035    
   3936000   306.7313       0.0018359364   0.63932986     761.0088      -2.0067827      759.00202    
   3937000   310.396        0.0018359364  -0.64122632     770.10104     -3.147867       766.95318    
   3938000   298.15839      0.0018359364   1.6288865      739.73919     -2.0433971      737.69579    
   3939000   298.11343      0.0018359364   2.0271482      739.62763     -1.3291774      738.29845    
   3940000   311.40527      0.0018359364   0.81328201     772.60507     -3.923496       768.68157    
   3941000   299.11019      0.0018359364  -0.26126645     742.10063     -1.4788603      740.62177    
   3942000   287.2311       0.0018359364   1.2764282      712.62828     -1.8044334      710.82385    
   3943000   292.33717      0.0018359364   2.2077257      725.29657     -3.7243478      721.57222    
   3944000   298.07271      0.0018359364   3.2903268      739.52662     -0.93476562     738.59185    
   3945000   319.28397      0.0018359364   3.3566747      792.15232     -3.6869089      788.46541    
   3946000   301.72428      0.0018359364   0.052271015    748.58625     -3.2678052      745.31844    
   3947000   283.37994      0.0018359364   0.70118005     703.07345     -3.8566269      699.21682    
   3948000   296.63396      0.0018359364   1.2360463      735.95703     -3.8749535      732.08208    
   3949000   313.57097      0.0018359364   1.4391629      777.97823     -3.7401627      774.23807    
   3950000   321.41519      0.0018359364   0.061118383    797.43994     -3.8774156      793.56252    
   3951000   295.98094      0.0018359364  -4.5335874      734.33688     -4.246125       730.09076    
   3952000   310.56548      0.0018359364  -0.31869852     770.52151     -3.5108973      767.01062    
   3953000   289.96225      0.0018359364   1.3508101      719.40433     -3.1119293      716.2924     
   3954000   309.9132       0.0018359364   0.90625169     768.90318     -2.2537934      766.64939    
   3955000   302.28884      0.0018359364  -0.11745566     749.98695     -2.2885677      747.69838    
   3956000   283.59936      0.0018359364   1.223068       703.61782     -3.0745983      700.54322    
   3957000   298.30946      0.0018359364   2.6772003      740.11399     -5.037563       735.07642    
   3958000   308.26807      0.0018359364  -0.30596764     764.82158     -3.5725359      761.24905    
   3959000   304.36215      0.0018359364  -0.6645919      755.13088     -3.4097165      751.72116    
   3960000   285.12271      0.0018359364   0.70735229     707.3973      -2.2168903      705.18041    
   3961000   296.70566      0.0018359364   2.0970378      736.13492     -2.8999859      733.23494    
   3962000   308.96523      0.0018359364   1.4999891      766.55125     -2.9483092      763.60294    
   3963000   310.19559      0.0018359364  -0.49742631     769.6038      -3.2383764      766.36542    
   3964000   294.87391      0.0018359364  -0.36816557     731.59031     -2.8258223      728.76449    
   3965000   295.86663      0.0018359364   1.5038299      734.05326     -3.0314863      731.02177    
   3966000   313.83901      0.0018359364   1.668224       778.64324     -3.0795383      775.56371    
   3967000   304.40989      0.0018359364   0.55490342     755.24934     -2.6866818      752.56265    
   3968000   293.12918      0.0018359364   0.6032612      727.26158     -1.809606       725.45197    
   3969000   286.44049      0.0018359364   2.2439745      710.66675     -2.0235744      708.64317    
   3970000   311.70391      0.0018359364   1.6263807      773.34599     -2.274878       771.07111    
   3971000   297.05069      0.0018359364   0.88744179     736.99096     -3.5565317      733.43443    
   3972000   297.14855      0.0018359364   0.47602014     737.23375     -3.2344873      733.99926    
   3973000   300.72124      0.0018359364   0.98072927     746.09769     -3.3832162      742.71447    
   3974000   307.22724      0.0018359364   1.4588041      762.23925     -2.7246836      759.51457    
   3975000   304.40837      0.0018359364   0.96968524     755.24555     -2.175001       753.07055    
   3976000   291.36851      0.0018359364   0.54424197     722.8933      -2.3099549      720.58334    
   3977000   298.15184      0.0018359364   1.338269       739.72293     -3.2080839      736.51485    
   3978000   304.80766      0.0018359364   1.2467352      756.2362      -3.7210623      752.51514    
   3979000   312.68448      0.0018359364   1.0285255      775.77881     -4.6002428      771.17857    
   3980000   303.71762      0.0018359364   0.93727811     753.53179     -1.5320665      751.99973    
   3981000   278.11383      0.0018359364   1.1786783      690.00807     -2.489478       687.5186     
   3982000   308.8069       0.0018359364   1.7001485      766.15842     -3.4737106      762.68471    
   3983000   318.59712      0.0018359364   1.0600997      790.44824     -3.1438444      787.30439    
   3984000   282.49649      0.0018359364   0.91237753     700.88157     -2.4327671      698.4488     
   3985000   294.55079      0.0018359364   1.0595537      730.78863     -3.2800235      727.5086     
   3986000   313.25003      0.0018359364   1.243408       777.18197     -2.4519883      774.72998    
   3987000   300.63733      0.0018359364   1.0384024      745.88951     -3.3484414      742.54107    
   3988000   299.17103      0.0018359364   1.2398615      742.25156     -3.6319605      738.6196     
   3989000   301.0859       0.0018359364   1.0183457      747.00242     -2.4268129      744.57561    
   3990000   296.53954      0.0018359364   0.70038256     735.72278     -1.9145291      733.80825    
   3991000   302.66222      0.0018359364   0.73717503     750.91331     -3.5699282      747.34338    
   3992000   298.48562      0.0018359364   2.3278233      740.55105     -2.1820497      738.369      
   3993000   297.90769      0.0018359364   1.0619883      739.1172      -1.6548395      737.46236    
   3994000   308.76959      0.0018359364  -0.18809708     766.06587     -1.3751086      764.69076    
   3995000   293.82067      0.0018359364  -0.76545755     728.97718     -1.2702521      727.70693    
   3996000   306.94964      0.0018359364   1.1340887      761.55053     -1.212679       760.33785    
   3997000   299.08243      0.0018359364   1.9176628      742.03175     -0.59846952     741.43328    
   3998000   291.65777      0.0018359364   1.273355       723.61096     -0.24339412     723.36756    
   3999000   281.61522      0.0018359364   0.30047082     698.69513     -1.6625041      697.03263    
   4000000   309.40924      0.0018359364   0.84362757     767.65284     -0.76476943     766.88807    
Loop time of 16758.9 on 1 procs for 4000000 steps with 1500 atoms

Performance: 5.155 ns/day, 4.655 hours/ns, 238.680 timesteps/s, 358.019 katom-step/s
100.0% CPU use with 1 MPI tasks x 1 OpenMP threads

MPI task timing breakdown:
Section |  min time  |  avg time  |  max time  |%varavg| %total
---------------------------------------------------------------
Pair    | 1414.4     | 1414.4     | 1414.4     |   0.0 |  8.44
Bond    | 93.122     | 93.122     | 93.122     |   0.0 |  0.56
Kspace  | 14699      | 14699      | 14699      |   0.0 | 87.71
Neigh   | 0.027468   | 0.027468   | 0.027468   |   0.0 |  0.00
Comm    | 22.478     | 22.478     | 22.478     |   0.0 |  0.13
Output  | 0.092924   | 0.092924   | 0.092924   |   0.0 |  0.00
Modify  | 511.4      | 511.4      | 511.4      |   0.0 |  3.05
Other   |            | 17.86      |            |       |  0.11

Nlocal:           1500 ave        1500 max        1500 min
Histogram: 1 0 0 0 0 0 0 0 0 0
Nghost:            506 ave         506 max         506 min
Histogram: 1 0 0 0 0 0 0 0 0 0
Neighs:              0 ave           0 max           0 min
Histogram: 1 0 0 0 0 0 0 0 0 0

Total # of neighbors = 0
Ave neighs/atom = 0
Ave special neighs/atom = 2
Neighbor list builds = 13617
Dangerous builds = 0
write_data	last_conf.data pair ij
System init for write_data ...
PPPM initialization ...
  using 12-bit tables for long-range coulomb (src/kspace.cpp:342)
  G vector (1/distance) = 0.13650934
  grid = 40 40 40
  stencil order = 5
  estimated absolute RMS force accuracy = 0.039405205
  estimated relative force accuracy = 0.0001186676
  using double precision FFTW3
  3d grid and FFT values/proc = 91125 64000
Generated 1 of 1 mixed pair_coeff terms from arithmetic mixing rule
Total wall time: 4:39:18
