LAMMPS data file via write_data, version 29 Aug 2024, timestep = 0, units = real

1500 atoms
2 atom types
1000 bonds
1 bond types
500 angles
1 angle types

0 141.5 xlo xhi
0 141.5 ylo yhi
0 141.5 zlo zhi

Masses

1 12.0107
2 15.9994

PairIJ Coeffs # lj/cut/coul/long/gpu

1 1 0.053649 2.8 12
1 2 0.0917684 2.925 12
2 2 0.156973 3.05 12

Bond Coeffs # harmonic

1 0 1.16

Angle Coeffs # harmonic

1 0 180

Atoms # full

1 1 1 0.7 10.425249003304751 40.15999854293651 14.095511134059873 0 0 0
2 1 2 -0.35 9.417588259062535 40.39768456857007 13.572323617263315 0 0 0
3 1 2 -0.35 11.432909747546967 39.922312517302956 14.61869865085643 0 0 0
4 2 1 0.7 32.255630144269965 33.875834745297134 96.65456420888871 0 0 0
5 2 2 -0.35 32.602950000399545 34.376401836109345 95.66744643215996 0 0 0
6 2 2 -0.35 31.90831028814038 33.37526765448492 97.64168198561747 0 0 0
7 3 1 0.7 53.26065879257427 22.892326795678738 12.836454972548621 0 0 0
8 3 2 -0.35 52.79804993762129 21.82856358084223 12.835522191872588 0 0 0
9 3 2 -0.35 53.723267647527244 23.956090010515247 12.837387753224654 0 0 0
10 4 1 0.7 96.29872362469263 15.647960209123772 88.26723474323155 0 0 0
11 4 2 -0.35 95.21366430693362 15.847004147274934 88.62588190637332 0 0 0
12 4 2 -0.35 97.38378294245163 15.44891627097261 87.90858758008979 0 0 0
13 5 1 0.7 21.41432949267995 76.1357834719288 29.612812707486007 0 0 0
14 5 2 -0.35 21.24167071763553 76.42076192144904 30.723927566854382 0 0 0
15 5 2 -0.35 21.586988267724372 75.85080502240857 28.501697848117633 0 0 0
16 6 1 0.7 47.04317471736259 94.13747471297974 57.03750105040963 0 0 0
17 6 2 -0.35 45.955700532973175 94.31103435816999 56.67297814598796 0 0 0
18 6 2 -0.35 48.130648901752004 93.96391506778949 57.4020239548313 0 0 0
19 7 1 0.7 108.28015423462733 33.05222138159546 121.18476047491876 0 0 0
20 7 2 -0.35 107.25878163506216 33.314897497842786 120.7016463364269 0 0 0
21 7 2 -0.35 109.3015268341925 32.78954526534813 121.66787461341062 0 0 0
22 8 1 0.7 1.2693019596716864 108.15803620203307 103.1144475697607 0 0 0
23 8 2 -0.35 0.7944085599419829 109.17546848385646 103.40583701843177 0 0 0
24 8 2 -0.35 1.74419535940139 107.14060392020968 102.82305812108963 0 0 0
25 9 1 0.7 94.02030496812439 68.76559926674962 112.92687626086496 0 0 0
26 9 2 -0.35 93.67954796507561 69.47761784190334 112.07686790001827 0 0 0
27 9 2 -0.35 94.36106197117317 68.0535806915959 113.77688462171164 0 0 0
28 10 1 0.7 22.50931635732265 84.58001752178185 27.35448858763766 0 0 0
29 10 2 -0.35 22.515895667296995 83.6204755475646 28.006282966560576 0 0 0
30 10 2 -0.35 22.502737047348305 85.53955949599911 26.702694208714746 0 0 0
31 11 1 0.7 13.38969242614214 55.560606170939565 48.60791498124968 0 0 0
32 11 2 -0.35 12.995281454589595 55.5314280920919 49.69841423628552 0 0 0
33 11 2 -0.35 13.784103397694686 55.58978424978723 47.517415726213834 0 0 0
34 12 1 0.7 73.72708986337626 15.699333764938329 102.70258731846819 0 0 0
35 12 2 -0.35 72.8077510847495 16.382742056219918 102.88526002447713 0 0 0
36 12 2 -0.35 74.64642864200303 15.015925473656742 102.51991461245925 0 0 0
37 13 1 0.7 105.38506149471974 51.22854175452541 112.10126830851718 0 0 0
38 13 2 -0.35 105.47003167154188 50.07769919651694 111.98319428204508 0 0 0
39 13 2 -0.35 105.3000913178976 52.37938431253388 112.21934233498928 0 0 0
40 14 1 0.7 13.51646124828442 63.664199916256685 122.70799252610094 0 0 0
41 14 2 -0.35 12.815441842775362 63.32336797051218 123.56706491994196 0 0 0
42 14 2 -0.35 14.217480653793478 64.00503186200119 121.84892013225992 0 0 0
43 15 1 0.7 132.23038617858217 138.60050343028294 85.66115276522987 0 0 0
44 15 2 -0.35 131.44374910136835 138.60661839844315 84.80864779989716 0 0 0
45 15 2 -0.35 133.01702325579598 138.59438846212274 86.51365773056258 0 0 0
46 16 1 0.7 85.99452521861276 28.985349224640686 113.76441853598898 0 0 0
47 16 2 -0.35 84.84499791499186 28.83517390124514 113.72399143526313 0 0 0
48 16 2 -0.35 87.14405252223366 29.135524548036233 113.80484563671483 0 0 0
49 17 1 0.7 90.58233436666538 18.793700544998842 37.72505979553101 0 0 0
50 17 2 -0.35 89.61060789668808 19.365389314842783 37.998042611802994 0 0 0
51 17 2 -0.35 91.55406083664268 18.2220117751549 37.452076979259026 0 0 0
52 18 1 0.7 125.07998348962514 95.28251012986642 57.64775266505208 0 0 0
53 18 2 -0.35 124.26434495273666 95.90429558331137 57.10579636881897 0 0 0
54 18 2 -0.35 125.8956220265136 94.66072467642148 58.18970896128519 0 0 0
55 19 1 0.7 35.2790415302287 49.8509985538437 24.232694451107033 0 0 0
56 19 2 -0.35 35.099300891720716 50.16261715559831 23.12988569619563 0 0 0
57 19 2 -0.35 35.45878216873669 49.53937995208909 25.335503206018437 0 0 0
58 20 1 0.7 41.89563975594735 36.01737820707139 7.075526248931665 0 0 0
59 20 2 -0.35 42.81609888237823 35.952686330641846 7.778498480029116 0 0 0
60 20 2 -0.35 40.97518062951647 36.08207008350093 6.372554017834213 0 0 0
61 21 1 0.7 58.3696657944795 140.9730078170416 57.34238101814053 0 0 0
62 21 2 -0.35 59.17930246560856 140.24453733200784 57.74165437462419 0 0 0
63 21 2 -0.35 57.560029123350446 0.20147830207537254 56.94310766165687 0 1 0
64 22 1 0.7 138.39777188789927 74.35211992303473 49.579546444853555 0 0 0
65 22 2 -0.35 137.47246687536946 73.66774652110128 49.4344820435925 0 0 0
66 22 2 -0.35 139.32307690042907 75.03649332496819 49.72461084611461 0 0 0
67 23 1 0.7 131.43709865372492 106.81707315487651 64.04851400947595 0 0 0
68 23 2 -0.35 132.1997373989714 107.41678469526168 63.41264593150872 0 0 0
69 23 2 -0.35 130.67445990847844 106.21736161449134 64.68438208744318 0 0 0
70 24 1 0.7 72.8749572622473 126.90670659062765 91.51766867889916 0 0 0
71 24 2 -0.35 72.05551954708737 127.64658340495096 91.87362391569201 0 0 0
72 24 2 -0.35 73.69439497740724 126.16682977630434 91.1617134421063 0 0 0
73 25 1 0.7 32.45748625786858 30.471535997219167 46.605505262550665 0 0 0
74 25 2 -0.35 31.41366559094039 29.988169738587043 46.45585408377291 0 0 0
75 25 2 -0.35 33.50130692479677 30.95490225585129 46.75515644132842 0 0 0
76 26 1 0.7 96.22694768906895 82.80981018175828 131.9797248113806 0 0 0
77 26 2 -0.35 95.14588154565156 83.10671850678025 131.68182979616668 0 0 0
78 26 2 -0.35 97.30801383248634 82.5129018567363 132.27761982659453 0 0 0
79 27 1 0.7 29.234904873759906 63.0462132827594 65.70664333724726 0 0 0
80 27 2 -0.35 28.38822025269582 62.971976710286384 64.9172042428511 0 0 0
81 27 2 -0.35 30.08158949482399 63.12044985523242 66.49608243164342 0 0 0
82 28 1 0.7 65.5545691147235 56.64311115799617 130.26923244156373 0 0 0
83 28 2 -0.35 64.72427238541972 57.19766347041249 130.85972297840675 0 0 0
84 28 2 -0.35 66.38486584402729 56.08855884557984 129.6787419047207 0 0 0
85 29 1 0.7 5.489645361662677 6.469593464615565 62.45735979380895 0 0 0
86 29 2 -0.35 4.330272686821132 6.494387288792253 62.48634715507997 0 0 0
87 29 2 -0.35 6.649018036504222 6.444799640438878 62.42837243253793 0 0 0
88 30 1 0.7 73.84605454692898 34.13877023553418 129.31134862304262 0 0 0
89 30 2 -0.35 72.92622905759266 34.18780454756265 128.60628358674376 0 0 0
90 30 2 -0.35 74.7658800362653 34.089735923505714 130.01641365934148 0 0 0
91 31 1 0.7 37.336307477362595 100.31977203316976 101.90856148414711 0 0 0
92 31 2 -0.35 37.64848761899655 99.33423002079181 101.38239563481115 0 0 0
93 31 2 -0.35 37.02412733572864 101.3053140455477 102.43472733348308 0 0 0
94 32 1 0.7 61.19286406072456 46.46626859762067 20.076320210507287 0 0 0
95 32 2 -0.35 60.401492786260455 45.61881384944437 20.04237973693194 0 0 0
96 32 2 -0.35 61.984235335188664 47.313723345796966 20.110260684082633 0 0 0
97 33 1 0.7 86.71377799600073 89.96677878427634 2.651027332596028 0 0 0
98 33 2 -0.35 85.57264648390905 89.80341302265062 2.7803737667942965 0 0 0
99 33 2 -0.35 87.8549095080924 90.13014454590207 2.5216808983977597 0 0 0
100 34 1 0.7 124.81637894144113 51.380868801093136 125.2619399722954 0 0 0
101 34 2 -0.35 123.81776131816314 51.32846118223931 124.67404858439735 0 0 0
102 34 2 -0.35 125.81499656471912 51.433276419946964 125.84983136019343 0 0 0
103 35 1 0.7 40.42511436875216 83.39719561762047 99.1667453470485 0 0 0
104 35 2 -0.35 39.2789028080263 83.57539770828477 99.16018234916153 0 0 0
105 35 2 -0.35 41.57132592947802 83.21899352695617 99.17330834493548 0 0 0
106 36 1 0.7 108.48904784419064 6.427117312060258 56.06066379675672 0 0 0
107 36 2 -0.35 107.50841504693415 5.872269118159016 56.336531153777166 0 0 0
108 36 2 -0.35 109.46968064144713 6.981965505961499 55.784796439736276 0 0 0
109 37 1 0.7 104.57643209028824 44.59414147427032 109.7357580613977 0 0 0
110 37 2 -0.35 103.41722542698429 44.591562469995935 109.69294147011966 0 0 0
111 37 2 -0.35 105.73563875359218 44.59672047854471 109.77857465267574 0 0 0
112 38 1 0.7 17.88573791127919 59.597074869366864 111.03732944887007 0 0 0
113 38 2 -0.35 17.928726020256892 60.20635705407285 110.0511614906163 0 0 0
114 38 2 -0.35 17.842749802301487 58.987792684660874 112.02349740712384 0 0 0
115 39 1 0.7 102.3960471592825 47.36460606118879 119.43407039993167 0 0 0
116 39 2 -0.35 101.60746029487909 46.65003506929491 118.97242220613666 0 0 0
117 39 2 -0.35 103.18463402368592 48.07917705308267 119.89571859372668 0 0 0
118 40 1 0.7 9.421211651489703 3.8042265874353363 121.13625502569425 0 0 0
119 40 2 -0.35 9.169533391998337 3.844807478347186 122.26789597802507 0 0 0
120 40 2 -0.35 9.672889910981068 3.7636456965234864 120.00461407336344 0 0 0
121 41 1 0.7 35.038216843520395 105.81048904723045 126.38941680215737 0 0 0
122 41 2 -0.35 34.51718441278033 106.56321032123351 125.6770012704764 0 0 0
123 41 2 -0.35 35.55924927426046 105.05776777322738 127.10183233383835 0 0 0
124 42 1 0.7 28.928193859024063 2.154188617437234 122.94809326759916 0 0 0
125 42 2 -0.35 27.785573528882352 1.9877081343618215 123.05901229167448 0 0 0
126 42 2 -0.35 30.070814189165773 2.3206691005126467 122.83717424352385 0 0 0
127 43 1 0.7 64.10354853915216 7.340297530330856 121.88059227069867 0 0 0
128 43 2 -0.35 65.20860811115966 7.398063837498849 121.5325888280853 0 0 0
129 43 2 -0.35 62.99848896714465 7.282531223162863 122.22859571331205 0 0 0
130 44 1 0.7 93.11429363261642 123.43308338426662 8.332439369211178 0 0 0
131 44 2 -0.35 92.49351477696202 124.31540519098223 7.90612746254364 0 0 0
132 44 2 -0.35 93.73507248827083 122.55076157755101 8.758751275878716 0 0 0
133 45 1 0.7 99.8084783322683 140.09533043326593 22.21859190041134 0 0 0
134 45 2 -0.35 98.68651374286746 139.86333711587355 22.4001808891081 0 0 0
135 45 2 -0.35 100.93044292166913 140.3273237506583 22.03700291171458 0 0 0
136 46 1 0.7 9.3740702133505 60.49807578185484 113.65966563423147 0 0 0
137 46 2 -0.35 9.066321340902254 60.155346637525035 114.7242910919084 0 0 0
138 46 2 -0.35 9.681819085798745 60.84080492618464 112.59504017655455 0 0 0
139 47 1 0.7 28.00031452858835 113.78628198443273 33.54131236092248 0 0 0
140 47 2 -0.35 27.276704590833777 113.93454174449657 34.43574385719742 0 0 0
141 47 2 -0.35 28.723924466342925 113.6380222243689 32.64688086464754 0 0 0
142 48 1 0.7 134.33685002421814 25.43835703420376 70.9666738626392 0 0 0
143 48 2 -0.35 133.32680167692035 24.873379499655172 71.04543122151075 0 0 0
144 48 2 -0.35 135.34689837151592 26.00333456875235 70.88791650376764 0 0 0
145 49 1 0.7 33.387609376985395 98.05079899358135 30.778685121693968 0 0 0
146 49 2 -0.35 33.567781148201284 97.16006457703752 30.057761871936243 0 0 0
147 49 2 -0.35 33.207437605769506 98.94153341012519 31.499608371451693 0 0 0
148 50 1 0.7 114.86084031051064 123.1430987523138 87.06073013812338 0 0 0
149 50 2 -0.35 114.1910481951196 122.35047873706264 87.57912384331591 0 0 0
150 50 2 -0.35 115.53063242590167 123.93571876756496 86.54233643293084 0 0 0
151 51 1 0.7 119.6914314395708 89.88820486673535 97.05919522119649 0 0 0
152 51 2 -0.35 118.86752167290972 90.44314349278788 97.6582075897795 0 0 0
153 51 2 -0.35 120.5153412062319 89.33326624068282 96.46018285261349 0 0 0
154 52 1 0.7 61.89408264932879 87.3470872688792 121.49572805291774 0 0 0
155 52 2 -0.35 61.84293619002464 86.18824711877532 121.50430396149154 0 0 0
156 52 2 -0.35 61.94522910863294 88.50592741898309 121.48715214434394 0 0 0
157 53 1 0.7 133.70138538847743 99.18422413998479 119.25512072455841 0 0 0
158 53 2 -0.35 132.66171402705763 99.10637944750862 118.7465701724038 0 0 0
159 53 2 -0.35 134.74105674989724 99.26206883246097 119.76367127671301 0 0 0
160 54 1 0.7 114.81401765337866 43.69470033524311 133.32853443097721 0 0 0
161 54 2 -0.35 114.09380737818387 44.56416873081767 133.5948460315523 0 0 0
162 54 2 -0.35 115.53422792857344 42.825231939668555 133.06222283040213 0 0 0
163 55 1 0.7 58.67818143390034 90.6953595630803 78.90817669053011 0 0 0
164 55 2 -0.35 57.8549376723567 90.52843778259508 79.70818095819318 0 0 0
165 55 2 -0.35 59.501425195443986 90.86228134356553 78.10817242286704 0 0 0
166 56 1 0.7 71.72563773962932 54.29348994991439 118.6855882111404 0 0 0
167 56 2 -0.35 70.58658175406418 54.23861157379323 118.47312686034324 0 0 0
168 56 2 -0.35 72.86469372519446 54.34836832603555 118.89804956193755 0 0 0
169 57 1 0.7 23.181064636763683 54.65335008718695 82.35491535107369 0 0 0
170 57 2 -0.35 22.072722561778896 54.721105577712414 82.01937543046502 0 0 0
171 57 2 -0.35 24.28940671174847 54.58559459666149 82.69045527168235 0 0 0
172 58 1 0.7 127.56230549540479 73.16846126814767 107.32853375786382 0 0 0
173 58 2 -0.35 127.9353532873952 72.15980661229027 107.76333386148418 0 0 0
174 58 2 -0.35 127.18925770341437 74.17711592400507 106.89373365424346 0 0 0
175 59 1 0.7 28.666868417135845 138.0574868021335 15.180683457609584 0 0 0
176 59 2 -0.35 28.41083135991498 137.0007223620206 14.77658700446683 0 0 0
177 59 2 -0.35 28.92290547435671 139.11425124224638 15.584779910752339 0 0 0
178 60 1 0.7 17.24687204428337 76.17844827062379 39.18008437388581 0 0 0
179 60 2 -0.35 16.227064316523386 75.91318057549877 38.69508411788168 0 0 0
180 60 2 -0.35 18.266679772043357 76.44371596574881 39.66508462988995 0 0 0
181 61 1 0.7 100.17807189872399 125.85440185403189 92.93196071425079 0 0 0
182 61 2 -0.35 99.10769649242431 126.14909071512217 93.26819718570819 0 0 0
183 61 2 -0.35 101.24844730502366 125.55971299294161 92.5957242427934 0 0 0
184 62 1 0.7 30.46372441293845 56.81620825655582 68.0121679336355 0 0 0
185 62 2 -0.35 31.027777208441208 57.627319373984825 68.620068582647 0 0 0
186 62 2 -0.35 29.899671617435693 56.00509713912681 67.404267284624 0 0 0
187 63 1 0.7 43.50646061171147 82.58350103468797 7.401890000748398 0 0 0
188 63 2 -0.35 42.442591814446345 83.00869044493076 7.2202388305813505 0 0 0
189 63 2 -0.35 44.57032940897659 82.15831162444518 7.583541170915445 0 0 0
190 64 1 0.7 25.06524257830588 26.032013586970052 2.0523562056721913 0 0 0
191 64 2 -0.35 25.105489907977944 26.93915299998855 1.3304987143328533 0 0 0
192 64 2 -0.35 25.024995248633818 25.124874173951554 2.7742136970115294 0 0 0
193 65 1 0.7 109.45074873252341 38.733947520951716 101.4559846354909 0 0 0
194 65 2 -0.35 109.72075698480535 38.120141198275974 102.40252430288099 0 0 0
195 65 2 -0.35 109.18074048024147 39.34775384362746 100.50944496810082 0 0 0
196 66 1 0.7 95.73376869584143 0.9504710070092562 126.56621480456843 0 0 0
197 66 2 -0.35 94.9909612932702 1.1772985665406823 125.70459631537359 0 0 0
198 66 2 -0.35 96.47657609841266 0.7236434474778302 127.42783329376327 0 0 0
199 67 1 0.7 28.87222038156922 51.90795303387937 69.46664041069646 0 0 0
200 67 2 -0.35 28.475994880258632 50.91660819361995 69.01294363993189 0 0 0
201 67 2 -0.35 29.26844588287981 52.899297874138796 69.92033718146102 0 0 0
202 68 1 0.7 9.32538257531141 91.20494325887643 11.981351935994509 0 0 0
203 68 2 -0.35 8.670684616659594 91.87064628872794 11.293013313669952 0 0 0
204 68 2 -0.35 9.980080533963227 90.53924022902491 12.669690558319065 0 0 0
205 69 1 0.7 16.081988259722472 24.976681155607423 94.08018229393298 0 0 0
206 69 2 -0.35 14.979619490624366 25.03289130666418 94.436866349976 0 0 0
207 69 2 -0.35 17.18435702882058 24.920471004550667 93.72349823788996 0 0 0
208 70 1 0.7 84.62381413142374 55.944106838872706 126.60364093356935 0 0 0
209 70 2 -0.35 83.51004376257862 56.02222314457241 126.28897697270567 0 0 0
210 70 2 -0.35 85.73758450026887 55.865990533173004 126.91830489443304 0 0 0
211 71 1 0.7 91.89317050012441 117.51659559110021 44.42209962123171 0 0 0
212 71 2 -0.35 92.93649167070687 117.07751959862057 44.67566067471285 0 0 0
213 71 2 -0.35 90.84984932954195 117.95567158357986 44.168538567750566 0 0 0
214 72 1 0.7 48.22833404141866 61.61023412347316 127.70491321347883 0 0 0
215 72 2 -0.35 47.071089572510935 61.628516949596566 127.78270124245125 0 0 0
216 72 2 -0.35 49.38557851032639 61.59195129734976 127.62712518450641 0 0 0
217 73 1 0.7 64.47637893863785 47.50082168635019 3.310082487673537 0 0 0
218 73 2 -0.35 64.42449179810536 48.594796458899346 3.69234799968501 0 0 0
219 73 2 -0.35 64.52826607917034 46.40684691380104 2.927816975662064 0 0 0
220 74 1 0.7 23.056370329138062 81.41612182344129 55.759486577827246 0 0 0
221 74 2 -0.35 21.907019583942727 81.51173703650385 55.635186153250615 0 0 0
222 74 2 -0.35 24.205721074333397 81.32050661037873 55.88378700240388 0 0 0
223 75 1 0.7 136.69091354249554 111.68390872244906 73.95389820120944 0 0 0
224 75 2 -0.35 136.1536236736306 110.99158481564419 73.19389346117059 0 0 0
225 75 2 -0.35 137.22820341136048 112.37623262925393 74.71390294124829 0 0 0
226 76 1 0.7 7.167067727151824 40.40729024070655 66.82707555490876 0 0 0
227 76 2 -0.35 8.12448195907756 40.73595961029948 67.39358630855554 0 0 0
228 76 2 -0.35 6.20965349522609 40.07862087111362 66.26056480126198 0 0 0
229 77 1 0.7 77.1588513514301 102.81466348577042 8.049205343494753 0 0 0
230 77 2 -0.35 76.3393208327875 103.42017070752408 7.494831161720797 0 0 0
231 77 2 -0.35 77.97838187007271 102.20915626401677 8.60357952526871 0 0 0
232 78 1 0.7 8.994208116314471 43.655810897311106 45.71375110778667 0 0 0
233 78 2 -0.35 9.130160704860645 43.1485524817821 44.67943694200212 0 0 0
234 78 2 -0.35 8.858255527768298 44.163069312840115 46.74806527357122 0 0 0
235 79 1 0.7 107.51486857049859 47.396064369890865 82.15386475583253 0 0 0
236 79 2 -0.35 106.6019314814104 46.77224729547077 81.80315386488512 0 0 0
237 79 2 -0.35 108.42780565958678 48.01988144431096 82.50457564677994 0 0 0
238 80 1 0.7 3.0049512772843947 130.21611731882027 103.28377741215927 0 0 0
239 80 2 -0.35 3.940060626215417 129.62300288787006 103.62929988225406 0 0 0
240 80 2 -0.35 2.069841928353372 130.80923174977048 102.93825494206448 0 0 0
241 81 1 0.7 109.94696616076259 30.160263936575625 50.55598202653042 0 0 0
242 81 2 -0.35 109.20296243344173 30.996051256297314 50.86178917151743 0 0 0
243 81 2 -0.35 110.69096988808344 29.324476616853936 50.250174881543415 0 0 0
244 82 1 0.7 128.38991989679167 115.88370537729175 51.43627614245577 0 0 0
245 82 2 -0.35 128.66531874459343 114.84400767695583 51.87076914187656 0 0 0
246 82 2 -0.35 128.1145210489899 116.92340307762767 51.00178314303498 0 0 0
247 83 1 0.7 65.9931262540599 69.47295198471889 115.40400717030467 0 0 0
248 83 2 -0.35 65.10984859234266 69.52157590249456 114.65363640399546 0 0 0
249 83 2 -0.35 66.87640391577715 69.42432806694322 116.15437793661387 0 0 0
250 84 1 0.7 54.648511310409994 1.0295940607458325 41.38737895520748 0 0 0
251 84 2 -0.35 55.799617720642175 0.8862587806984277 41.384373989962974 0 0 0
252 84 2 -0.35 53.49740490017781 1.1729293407932373 41.39038392045199 0 0 0
253 85 1 0.7 125.17810017204755 46.32959160317182 128.44607450880392 0 0 0
254 85 2 -0.35 126.08407778696699 45.64949179793636 128.196537304797 0 0 0
255 85 2 -0.35 124.27212255712811 47.00969140840728 128.69561171281083 0 0 0
256 86 1 0.7 69.17426946767338 47.94694318666446 1.7741382696079733 0 0 0
257 86 2 -0.35 68.53891881202203 48.2620834462948 2.692079531957325 0 0 0
258 86 2 -0.35 69.80962012332473 47.63180292703412 0.8561970072586218 0 0 0
259 87 1 0.7 102.94189730120911 23.96794142153484 120.191471736036 0 0 0
260 87 2 -0.35 102.62846187033595 23.45890259280676 121.18557319037579 0 0 0
261 87 2 -0.35 103.25533273208227 24.47698025026292 119.1973702816962 0 0 0
262 88 1 0.7 4.065467556969015 125.31322997823042 53.456244118724136 0 0 0
263 88 2 -0.35 4.070118283467553 125.05437294769916 52.325504799301854 0 0 0
264 88 2 -0.35 4.060816830470476 125.57208700876168 54.58698343814642 0 0 0
265 89 1 0.7 55.59490339648673 59.04138475239341 110.55353347610381 0 0 0
266 89 2 -0.35 54.81880873638132 59.534049572519784 109.84603191881526 0 0 0
267 89 2 -0.35 56.370998056592136 58.54871993226704 111.26103503339236 0 0 0
268 90 1 0.7 36.7371328767562 76.49225964140717 77.90779313044985 0 0 0
269 90 2 -0.35 37.49127075099682 75.71650494031373 78.3262195999367 0 0 0
270 90 2 -0.35 35.98299500251558 77.26801434250062 77.48936666096299 0 0 0
271 91 1 0.7 96.7791434707023 24.564312093455488 96.89335470641653 0 0 0
272 91 2 -0.35 95.77312547708604 24.36581971065601 96.35101849105662 0 0 0
273 91 2 -0.35 97.78516146431855 24.762804476254967 97.43569092177644 0 0 0
274 92 1 0.7 104.61255074274379 85.64033329493381 19.081687952662676 0 0 0
275 92 2 -0.35 103.72657105154174 85.34783588499162 19.770952235760696 0 0 0
276 92 2 -0.35 105.49853043394585 85.932830704876 18.392423669564657 0 0 0
277 93 1 0.7 66.92942040154217 99.2686887193791 123.85130660461787 0 0 0
278 93 2 -0.35 65.77042437898331 99.22150040348998 123.86138045871083 0 0 0
279 93 2 -0.35 68.08841642410104 99.31587703526822 123.84123275052492 0 0 0
280 94 1 0.7 103.91010381277191 24.11478125728424 41.12859117618231 0 0 0
281 94 2 -0.35 103.99955887104406 23.452484009549917 42.07672626581515 0 0 0
282 94 2 -0.35 103.82064875449976 24.77707850501856 40.180456086549476 0 0 0
283 95 1 0.7 20.731898096032396 68.01130001643267 28.91937618396216 0 0 0
284 95 2 -0.35 19.58100632621607 67.87260623160441 28.961945753129072 0 0 0
285 95 2 -0.35 21.88278986584872 68.14999380126093 28.87680661479525 0 0 0
286 96 1 0.7 136.95552385200537 30.989380654408308 118.52065864043341 0 0 0
287 96 2 -0.35 136.33734307177366 31.324506573406502 119.44323283331316 0 0 0
288 96 2 -0.35 137.57370463223708 30.654254735410113 117.59808444755366 0 0 0
289 97 1 0.7 81.2097697643143 125.10042883041334 14.40735275713138 0 0 0
290 97 2 -0.35 81.20177211582379 125.56189651680572 13.343123640806198 0 0 0
291 97 2 -0.35 81.21776741280482 124.63896114402095 15.47158187345656 0 0 0
292 98 1 0.7 37.87778910709442 3.5015229359276234 127.59598413556627 0 0 0
293 98 2 -0.35 37.58633869903544 2.91776599565022 128.55509022684095 0 0 0
294 98 2 -0.35 38.16923951515341 4.085279876205027 126.63687804429158 0 0 0
295 99 1 0.7 73.2053664623319 20.09413241226884 103.08345300242465 0 0 0
296 99 2 -0.35 72.10806484475368 19.818480611556403 102.82743494676407 0 0 0
297 99 2 -0.35 74.3026680799101 20.36978421298128 103.33947105808522 0 0 0
298 100 1 0.7 139.09461175119253 41.63970229292274 120.97643715258522 0 0 0
299 100 2 -0.35 138.82702123151134 42.756575813821534 120.81337626796883 0 0 0
300 100 2 -0.35 139.36220227087372 40.52282877202395 121.1394980372016 0 0 0
301 101 1 0.7 37.4792234997634 96.80936052338656 107.92231655792442 0 0 0
302 101 2 -0.35 36.60808739667098 96.71399255054273 107.16229890046861 0 0 0
303 101 2 -0.35 38.35035960285582 96.90472849623039 108.68233421538022 0 0 0
304 102 1 0.7 103.37438903556875 76.35652080404411 60.545153569218314 0 0 0
305 102 2 -0.35 104.46970946639563 76.73836983002039 60.53712392575106 0 0 0
306 102 2 -0.35 102.27906860474188 75.97467177806783 60.55318321268557 0 0 0
307 103 1 0.7 55.89603785211036 26.208180418800648 132.88829878246798 0 0 0
308 103 2 -0.35 54.869934672747114 25.66850189890727 132.8500972057161 0 0 0
309 103 2 -0.35 56.92214103147361 26.747858938694026 132.92650035921986 0 0 0
310 104 1 0.7 17.63763693936059 134.76403983345443 130.21748086866805 0 0 0
311 104 2 -0.35 16.478042081306995 134.7858799488906 130.19596867367542 0 0 0
312 104 2 -0.35 18.797231797414184 134.74219971801827 130.23899306366067 0 0 0
313 105 1 0.7 126.2009597039786 116.02974476829625 100.4203207550665 0 0 0
314 105 2 -0.35 125.32101650454736 116.67580351979899 100.02800958344194 0 0 0
315 105 2 -0.35 127.08090290340984 115.38368601679352 100.81263192669105 0 0 0
316 106 1 0.7 93.83093040265652 140.44727744811553 135.89207047777813 0 0 0
317 106 2 -0.35 92.70090132919069 140.3687036299288 135.64214959386186 0 0 0
318 106 2 -0.35 94.96095947612235 140.52585126630225 136.1419913616944 0 0 0
319 107 1 0.7 128.02852001694427 126.33592478248102 120.38781915832676 0 0 0
320 107 2 -0.35 128.7275125301214 125.41844674218112 120.51128377710398 0 0 0
321 107 2 -0.35 127.32952750376715 127.25340282278091 120.26435453954954 0 0 0
322 108 1 0.7 49.5765939976911 81.81531919437242 114.56969981736954 0 0 0
323 108 2 -0.35 50.727646802221926 81.85964577702379 114.70649380573218 0 0 0
324 108 2 -0.35 48.42554119316027 81.77099261172106 114.4329058290069 0 0 0
325 109 1 0.7 40.94483053006457 45.26671879518158 93.74279061692897 0 0 0
326 109 2 -0.35 39.79692286944777 45.36791626127953 93.60987306521882 0 0 0
327 109 2 -0.35 42.092738190681374 45.16552132908363 93.87570816863912 0 0 0
328 110 1 0.7 74.08189872516407 35.97187383262062 91.2835048547869 0 0 0
329 110 2 -0.35 74.85314150273673 36.737090232717065 91.68998786681256 0 0 0
330 110 2 -0.35 73.3106559475914 35.20665743252418 90.87702184276124 0 0 0
331 111 1 0.7 58.86609440360502 135.94864138958445 88.31583474614465 0 0 0
332 111 2 -0.35 58.027242636814755 136.24139945151336 89.06163661697126 0 0 0
333 111 2 -0.35 59.70494617039528 135.65588332765554 87.57003287531803 0 0 0
334 112 1 0.7 130.73457845288075 44.06005756699483 47.8875284820737 0 0 0
335 112 2 -0.35 129.85934819336387 43.3452371226305 48.14945161038576 0 0 0
336 112 2 -0.35 131.60980871239764 44.77487801135916 47.625605353761635 0 0 0
337 113 1 0.7 135.19119821264928 92.9683599967828 76.2264659282409 0 0 0
338 113 2 -0.35 134.19904704170378 93.54512191123798 76.3955273017875 0 0 0
339 113 2 -0.35 136.1833493835948 92.3915980823276 76.0574045546943 0 0 0
340 114 1 0.7 138.7128559447419 134.46986327738028 138.49210293055145 0 0 0
341 114 2 -0.35 137.63019837542137 134.20749400138013 138.1686605854509 0 0 0
342 114 2 -0.35 139.79551351406243 134.73223255338044 138.815545275652 0 0 0
343 115 1 0.7 103.27395377809832 86.34114849839413 53.182812510143414 0 0 0
344 115 2 -0.35 104.18757865911745 86.47549494432015 52.480786435663404 0 0 0
345 115 2 -0.35 102.36032889707919 86.20680205246812 53.884838584623424 0 0 0
346 116 1 0.7 129.52985798033413 30.823075475787313 11.929521557376498 0 0 0
347 116 2 -0.35 129.7589372428426 29.748043130018793 11.558808532193924 0 0 0
348 116 2 -0.35 129.30077871782566 31.898107821555833 12.300234582559073 0 0 0
349 117 1 0.7 135.46881482678876 89.37079383869226 32.43204690093736 0 0 0
350 117 2 -0.35 135.65933878893162 89.25911167359618 31.293263465051133 0 0 0
351 117 2 -0.35 135.2782908646459 89.48247600378835 33.57083033682358 0 0 0
352 118 1 0.7 27.41226405413461 135.42195784040817 9.345423740262829 0 0 0
353 118 2 -0.35 26.257672217233303 135.4947502396656 9.430388184421648 0 0 0
354 118 2 -0.35 28.566855891035917 135.34916544115075 9.26045929610401 0 0 0
355 119 1 0.7 3.5368025973610595 13.041253847322078 0.8534119421864915 0 0 0
356 119 2 -0.35 4.533898321148179 13.467870144419988 1.2649926179426638 0 0 0
357 119 2 -0.35 2.53970687357394 12.614637550224169 0.4418312664303192 0 0 0
358 120 1 0.7 51.79451232836326 2.368702801348969 49.28798227211833 0 0 0
359 120 2 -0.35 51.14245894265898 1.4842808910775083 49.659767514998364 0 0 0
360 120 2 -0.35 52.44656571406754 3.2531247116204294 48.91619702923829 0 0 0
361 121 1 0.7 42.11804749263359 95.02420869284505 102.8755006468275 0 0 0
362 121 2 -0.35 41.07270806906174 94.54342541643555 103.02285372840852 0 0 0
363 121 2 -0.35 43.16338691620545 95.50499196925455 102.72814756524649 0 0 0
364 122 1 0.7 40.03937122995936 109.21226192694729 133.9862062029942 0 0 0
365 122 2 -0.35 39.08622792593181 108.62201971594254 133.68832707593816 0 0 0
366 122 2 -0.35 40.992514533986906 109.80250413795204 134.28408533005023 0 0 0
367 123 1 0.7 75.16765372346512 30.756130278229776 18.78158620781339 0 0 0
368 123 2 -0.35 75.15866184778932 31.290511825799314 17.752044801269186 0 0 0
369 123 2 -0.35 75.17664559914093 30.221748730660238 19.811127614357595 0 0 0
370 124 1 0.7 117.11939471965628 19.16705326301374 86.6641914719549 0 0 0
371 124 2 -0.35 115.96731719168032 19.264193168892145 86.7584316344056 0 0 0
372 124 2 -0.35 118.27147224763225 19.069913357135338 86.56995130950419 0 0 0
373 125 1 0.7 105.56606914595052 121.92413599040552 117.45359074555039 0 0 0
374 125 2 -0.35 104.6870996491123 122.30382848733564 116.79872722434698 0 0 0
375 125 2 -0.35 106.44503864278875 121.5444434934754 118.1084542667538 0 0 0
376 126 1 0.7 117.49966046540051 42.79344198633611 126.3794643510503 0 0 0
377 126 2 -0.35 116.85552782845947 41.89788594741241 126.73817388141528 0 0 0
378 126 2 -0.35 118.14379310234155 43.688998025259814 126.02075482068533 0 0 0
379 127 1 0.7 3.157348102497565 3.049558676569517 30.932677103873658 0 0 0
380 127 2 -0.35 2.8068859721664206 3.999342457925755 31.498969487608775 0 0 0
381 127 2 -0.35 3.5078102328287093 2.099774895213279 30.36638472013854 0 0 0
382 128 1 0.7 14.504084804562892 107.1533102885137 55.186019049578356 0 0 0
383 128 2 -0.35 13.59564601094647 106.62929489954941 54.690290464179704 0 0 0
384 128 2 -0.35 15.412523598179313 107.67732567747798 55.68174763497701 0 0 0
385 129 1 0.7 120.42216626341556 60.84838922524284 58.37770865642359 0 0 0
386 129 2 -0.35 119.36166230345871 61.31319580841627 58.44760995222328 0 0 0
387 129 2 -0.35 121.48267022337241 60.38358264206941 58.307807360623904 0 0 0
388 130 1 0.7 134.64938851126908 42.77270889923569 60.91846945412386 0 0 0
389 130 2 -0.35 133.57954918377834 42.54651342430536 60.53132681829668 0 0 0
390 130 2 -0.35 135.71922783875982 42.99890437416602 61.30561208995104 0 0 0
391 131 1 0.7 104.21611545966756 73.25253063289101 105.28234699917135 0 0 0
392 131 2 -0.35 103.48608783444998 72.46317633375594 105.7177542302277 0 0 0