LAMMPS data file via write_data, version 29 Aug 2024, timestep = 4000000, units = real

1500 atoms
2 atom types
1000 bonds
1 bond types
500 angles
1 angle types

0 141.5 xlo xhi
0 141.5 ylo yhi
0 141.5 zlo zhi

Masses

1 12.0107
2 15.9994

PairIJ Coeffs # lj/cut/coul/long/gpu

1 1 0.053649 2.8 12
1 2 0.0917684 2.925 12
2 2 0.156973 3.05 12

Bond Coeffs # harmonic

1 0 1.16

Angle Coeffs # harmonic

1 0 180

Atoms # full

373 125 1 0.7 20.91838055925969 5.588120758427747 9.034313220585366 0 0 3
374 125 2 -0.35 20.590021560322334 4.685885209014212 9.685275109785346 0 0 3
375 125 2 -0.35 21.246739558197042 6.4903563078412825 8.383351331385386 0 0 3
1394 465 2 -0.35 19.98392348427407 13.385347641282866 10.464672307976521 3 10 -2
1393 465 1 0.7 19.557022524083216 12.650884322430327 9.674786744462692 3 10 -2
1395 465 2 -0.35 19.130121563892367 11.91642100357779 8.884901180948864 3 10 -2
1242 414 2 -0.35 27.52432963444656 21.471389855951948 12.391104179884724 4 6 5
1241 414 2 -0.35 25.379215400146997 21.481577139864942 13.27472238988945 4 6 5
1240 414 1 0.7 26.451772517296778 21.476483497908447 12.832913284887086 4 6 5
96 32 2 -0.35 38.13963330867101 14.503488110666925 7.972331071612358 -1 -2 -2
94 32 1 0.7 38.72992476944401 15.294281121128513 8.582087093265006 -1 -2 -2
95 32 2 -0.35 39.320216230217014 16.0850741315901 9.191843114917653 -1 -2 -2
1442 481 2 -0.35 64.2521345424619 20.686888679661003 9.182434082708923 -3 -1 0
1441 481 1 0.7 64.22414139246268 19.537296099931133 9.33492435841491 -3 -1 0
1443 481 2 -0.35 64.19614824246347 18.387703520201264 9.487414634120897 -3 -1 0
585 195 2 -0.35 52.17949606337708 23.716720302851726 0.2461198692674279 -1 -3 2
583 195 1 0.7 51.287159450147804 23.68143642924953 141.00578858061684 -1 -3 1
1280 427 2 -0.35 87.82383126649867 20.55477625162483 7.761273968628673 -3 -1 -1
1279 427 1 0.7 88.30621612497072 19.985221262706258 6.873292007712003 -3 -1 -1
1281 427 2 -0.35 88.78860098344276 19.415666273787682 5.985310046795331 -3 -1 -1
1076 359 2 -0.35 88.31713908223401 22.605385762955237 18.233383425109533 0 8 2
1075 359 1 0.7 88.46671296936786 21.557701186328984 17.758425868915598 0 8 2
1077 359 2 -0.35 88.61628685650173 20.510016609702728 17.28346831272166 0 8 2
1451 484 2 -0.35 104.08860098596314 2.8547708568893366 4.978043376675713 -6 -2 -5
1450 484 1 0.7 104.79121875235445 3.041108824853117 4.074048666488003 -6 -2 -5
1452 484 2 -0.35 105.49383651874577 3.2274467928168966 3.170053956300292 -6 -2 -5
1173 391 2 -0.35 114.78328777329223 18.501744293032957 5.360416451948847 1 5 0
1171 391 1 0.7 114.32279359820896 17.992327214131485 4.425515732921019 1 5 0
1172 391 2 -0.35 113.86229942312569 17.482910135230014 3.4906150138931906 1 5 0
157 53 1 0.7 99.08908067784172 1.2608222345167794 8.186731247228282 3 2 2
159 53 2 -0.35 100.03629740338263 1.5263412056365553 7.572011676341203 3 2 2
158 53 2 -0.35 98.1418639523008 0.9953032633970034 8.80145081811536 3 2 2
237 79 2 -0.35 139.77539755779165 21.462330039111347 14.957056966254262 -9 -5 4
235 79 1 0.7 138.77460603075718 21.15550085710612 15.456929122397243 -9 -5 4
236 79 2 -0.35 137.77381450372275 20.848671675100892 15.956801278540224 -9 -5 4
1368 456 2 -0.35 20.652098545878484 28.608957550939493 15.672299304912475 3 8 0
1366 456 1 0.7 19.69302486829906 29.09725517496836 15.239467800352454 3 8 0
1367 456 2 -0.35 18.733951190719633 29.585552798997227 14.806636295792433 3 8 0
110 37 2 -0.35 3.2699482692564588 41.32761483897521 2.0918506233400858 -14 -8 7
109 37 1 0.7 3.3877968249857693 41.975840721305346 1.1371177165085407 -14 -8 7
111 37 2 -0.35 3.5056453807150794 42.624066603635484 0.18238480967699533 -14 -8 7
889 297 1 0.7 22.69002984896719 38.56285233379467 8.287199553419633 1 1 2
890 297 2 -0.35 21.84147473340354 38.10441099871358 7.642695280244724 1 1 2
891 297 2 -0.35 23.538584964530838 39.02129366887576 8.931703826594541 1 1 2
982 328 1 0.7 21.229290959525287 28.940712723361674 2.6746682883454795 -2 6 -1
983 328 2 -0.35 20.822535367150223 29.98806275797739 2.963125898859162 -2 6 -1
984 328 2 -0.35 21.63604655190035 27.89336268874596 2.3862106778317975 -2 6 -1
1190 397 2 -0.35 40.52098600348098 27.08818088689642 18.722921718632808 -3 -5 -3
1189 397 1 0.7 40.66459674504073 28.16899628773397 19.11891922395084 -3 -5 -3
1191 397 2 -0.35 40.80820748660049 29.249811688571526 19.514916729268872 -3 -5 -3
665 222 2 -0.35 51.46926864650708 28.340177241495073 8.00347994105866 -2 -2 -2
664 222 1 0.7 52.47588961347463 28.8557173529489 8.261419124477452 -2 -2 -2
666 222 2 -0.35 53.482510580442174 29.37125746440273 8.519358307896242 -2 -2 -2
462 154 2 -0.35 53.60504868207646 27.63719488037938 2.572559164129031 6 3 -2
460 154 1 0.7 54.5114864576723 27.515016947226822 3.2860317365674554 6 3 -2
461 154 2 -0.35 55.41792423326813 27.39283901407427 3.99950430900588 6 3 -2
1455 485 2 -0.35 55.34539653870832 31.590742534433673 24.467502824455973 0 1 -3
1453 485 1 0.7 54.474061598954826 31.467868788236103 23.71167383238179 0 1 -3
707 236 2 -0.35 54.489075048712245 34.596067707983494 12.96178366843595 -1 5 3
706 236 1 0.7 54.4977635143021 35.74547764769561 12.805638540252627 -1 5 3
708 236 2 -0.35 54.506451979891956 36.894887587407716 12.649493412069301 -1 5 3
1454 485 2 -0.35 53.60272665920134 31.344995042038533 22.95584484030761 0 1 -3
918 306 2 -0.35 90.45082230953975 40.64563145435481 10.127858532018854 4 3 -2
916 306 1 0.7 91.03396231852905 40.5869641952258 11.128910919570341 4 3 -2
917 306 2 -0.35 91.61710232751835 40.52829693609678 12.129963307121828 4 3 -2
551 184 2 -0.35 95.94017068508735 30.264476823102992 15.895417588416247 1 10 -1
550 184 1 0.7 96.89184372925709 29.887019260618985 16.44080204503776 1 10 -1
552 184 2 -0.35 97.84351677342683 29.50956169813498 16.986186501659276 1 10 -1
406 136 1 0.7 118.30430927368191 46.568416585253686 2.5778274300569595 0 -2 -2
407 136 2 -0.35 118.55066283091261 47.699248599890566 2.6561145906347146 0 -2 -2
408 136 2 -0.35 118.05795571645119 45.437584570616806 2.499540269479204 0 -2 -2
963 321 2 -0.35 133.37835340079945 37.78699544863586 5.628904413749722 1 -2 -7
962 321 2 -0.35 131.40426793912943 38.34012078729961 6.714924187856688 1 -2 -7
961 321 1 0.7 132.39131066996444 38.06355811796773 6.171914300803205 1 -2 -7
1201 401 1 0.7 0.5803397229906234 63.15318422168569 16.038295964939184 2 4 4
1202 401 2 -0.35 1.7243634275708044 63.34451228754161 16.024036421637078 2 4 4
832 278 1 0.7 30.53926638149457 65.76501423225965 17.03438523627118 -2 -1 0
834 278 2 -0.35 30.45869463299132 65.1544415623592 18.017395515014588 -2 -1 0
833 278 2 -0.35 30.619838129997817 66.37558690216011 16.051374957527774 -2 -1 0
530 177 2 -0.35 34.23709229109885 47.824368574113244 15.086266296074095 0 1 2
529 177 1 0.7 34.07089141255236 48.58368878640319 14.225214565236817 0 1 2
531 177 2 -0.35 33.90469053400588 49.34300899869313 13.36416283439954 0 1 2
16 6 1 0.7 42.29643207758637 48.63587347380549 17.45249106655297 4 -1 6
18 6 2 -0.35 41.35698895745627 48.11677370446949 17.892470672350207 4 -1 6
17 6 2 -0.35 43.23587519771647 49.15497324314149 17.012511460755732 4 -1 6
417 139 2 -0.35 42.94959691382916 55.1263837635755 141.3528163755354 1 -4 0
351 117 2 -0.35 50.37351074038589 65.2440352560514 21.37983281123445 -3 1 -1
349 117 1 0.7 51.333749283012125 64.8075561161241 20.89710317503724 -3 1 -1
350 117 2 -0.35 52.29398782563836 64.3710769761968 20.41437353884003 -3 1 -1
136 46 1 0.7 70.73149491036844 52.09841066941034 141.37511764392377 -1 -6 -3
137 46 2 -0.35 69.77889990092426 52.646398420472224 0.24642906667696507 -1 -6 -2
1162 388 1 0.7 83.70821438033084 54.62928980374877 4.6708973024394655 -2 -3 -3
1164 388 2 -0.35 84.63868297342485 55.28123569975355 4.9049800782872355 -2 -3 -3
1163 388 2 -0.35 82.77774578723685 53.977343907743986 4.436814526591695 -2 -3 -3
1028 343 2 -0.35 85.38014688629956 65.09984641855236 3.332406187305135 2 4 1
1027 343 1 0.7 85.28149291643352 66.19119770617392 3.7129581039147475 2 4 1
1029 343 2 -0.35 85.18283894656749 67.28254899379549 4.09351002052436 2 4 1
268 90 1 0.7 115.37127945951977 47.82667797751911 12.803302491862748 -2 0 -1
270 90 2 -0.35 114.36334584486039 47.63354952781041 13.344016122497571 -2 0 -1
269 90 2 -0.35 116.37921307417916 48.01980642722782 12.262588861227927 -2 0 -1
798 266 2 -0.35 110.68929465983554 55.392653180019366 12.796283741629036 2 3 5
1283 428 2 -0.35 107.78544185353981 69.92090188387866 0.1688497922976504 -5 -5 3
796 266 1 0.7 111.04879082734426 54.88395329434251 11.817720032994202 2 3 5
797 266 2 -0.35 111.40828699485299 54.37525340866566 10.839156324359369 2 3 5
1282 428 1 0.7 107.97145107195487 70.16715190920401 1.287045435148693 -5 -5 3
1284 428 2 -0.35 108.15746029036994 70.41340193452936 2.4052410779997357 -5 -5 3
1203 401 2 -0.35 140.93631601841045 62.96185615582977 16.05255550824129 1 4 4
51 17 2 -0.35 135.4885146063136 62.23387284975976 4.111886980130708 0 2 -11
50 17 2 -0.35 137.53699726694632 62.5137759358072 5.164394961811229 0 2 -11
49 17 1 0.7 136.51275593662996 62.37382439278348 4.6381409709709684 0 2 -11
311 104 2 -0.35 11.580981373568951 81.4961247079248 10.107172412252224 6 9 -1
310 104 1 0.7 10.977574985945605 81.65870558221792 9.129896509198737 6 9 -1
312 104 2 -0.35 10.37416859832226 81.82128645651103 8.15262060614525 6 9 -1
197 66 2 -0.35 13.86685866168092 89.77773408491561 17.98122278622633 -3 -3 -3
196 66 1 0.7 12.712898847828512 89.67910958219285 18.046414468803498 -3 -3 -3
198 66 2 -0.35 11.558939033976102 89.58048507947008 18.11160615138067 -3 -3 -3
615 205 2 -0.35 12.901323034737509 78.49128192324787 7.414268632803194 -4 -1 7
613 205 1 0.7 12.506099476068638 77.40934134968211 7.277144842218392 -4 -1 7
614 205 2 -0.35 12.110875917399767 76.32740077611633 7.140021051633591 -4 -1 7
589 197 1 0.7 6.732870779692028 93.41135552722778 13.691540261291461 6 -2 6
590 197 2 -0.35 6.017174067479867 93.52773547004088 12.786093451676972 6 -2 6
591 197 2 -0.35 7.448567491904191 93.2949755844147 14.59698707090595 6 -2 6
299 100 2 -0.35 5.318739404272325 92.39162953599696 20.25028671180421 4 1 -3
298 100 1 0.7 5.479682038357207 93.40449208271872 20.792326313659412 4 1 -3
300 100 2 -0.35 5.640624672442088 94.4173546294405 21.33436591551461 4 1 -3
13 5 1 0.7 43.40293906626832 89.89255690290746 17.840625832116743 -8 1 2
15 5 2 -0.35 44.54936951501818 89.75841129349433 17.72529074788258 -8 1 2
14 5 2 -0.35 42.256508617518456 90.0267025123206 17.955960916350907 -8 1 2
1195 399 1 0.7 55.30182763900666 81.42968336902752 16.782338387297305 3 0 1
1196 399 2 -0.35 55.466800371585066 82.4680005073276 17.27252357456538 3 0 1
1197 399 2 -0.35 55.13685490642826 80.39136623072744 16.29215320002923 3 0 1
1373 458 2 -0.35 66.0100823811983 93.8023183326796 3.5243625667724676 -1 -4 0
1372 458 1 0.7 65.1132675517469 93.06815202217 3.476165158262559 -1 -4 0
1374 458 2 -0.35 64.21645272229551 92.33398571166039 3.42796774975265 -1 -4 0
1259 420 2 -0.35 92.04766183992304 82.50013361693978 17.36232559321029 3 0 -5
1258 420 1 0.7 92.1327110916286 83.63902725100702 17.159131314092708 3 0 -5
1260 420 2 -0.35 92.21776034333416 84.77792088507425 16.95593703497513 3 0 -5
969 323 2 -0.35 86.48793595765893 84.97151234374644 5.134347650000523 -3 -8 2
967 323 1 0.7 86.90779501316607 84.87421517808069 4.057383567468985 -3 -8 2
968 323 2 -0.35 87.3276540686732 84.77691801241494 2.980419484937447 -3 -8 2
1358 453 2 -0.35 90.45022137089313 72.12413267423695 140.79465610262702 0 7 -4
1329 443 2 -0.35 102.48133979301895 72.88572531296796 9.01202820074657 2 0 1
1327 443 1 0.7 102.87993238829748 73.62165961003166 9.8152247230211 2 0 1
1328 443 2 -0.35 103.27852498357602 74.35759390709535 10.618421245295629 2 0 1
396 132 2 -0.35 97.3772128919459 88.36475656737313 10.482976289753045 2 3 3
394 132 1 0.7 97.6446625582085 87.54199802301157 9.710228560093357 2 3 3
395 132 2 -0.35 97.91211222447107 86.71923947865001 8.93748083043367 2 3 3
1399 467 1 0.7 115.02731705340689 90.6601225444513 13.228230295750695 -3 0 2
1401 467 2 -0.35 114.9732163934869 91.32047614897702 12.276071571804168 -3 0 2
1400 467 2 -0.35 115.08141771332687 89.99976893992556 14.180389019697222 -3 0 2
824 275 2 -0.35 14.856571748256975 102.16419058666595 17.860479289473957 2 1 -3
823 275 1 0.7 13.705984129663939 102.20736638612827 18.00148986454365 2 1 -3
825 275 2 -0.35 12.555396511070903 102.2505421855906 18.142500439613343 2 1 -3
1332 444 2 -0.35 15.841948533218352 103.60907002289429 12.284728800621354 -4 -4 2
1330 444 1 0.7 16.62906773036576 103.04893808242028 11.642626333143395 -4 -4 2
1331 444 2 -0.35 17.41618692751317 102.48880614194627 11.000523865665437 -4 -4 2
932 311 2 -0.35 17.6634117536041 102.13934041989557 14.6754171001212 -3 -4 1
931 311 1 0.7 17.454996122356626 102.76611959479644 15.628994989211687 -3 -4 1
933 311 2 -0.35 17.24658049110915 103.39289876969728 16.582572878302173 -3 -4 1
365 122 2 -0.35 5.342548932012684 116.1404314258273 3.1200130631799716 -1 -4 -3
364 122 1 0.7 6.366064848294279 116.34270689561649 3.627063162718331 -1 -4 -3
366 122 2 -0.35 7.389580764575874 116.54498236540569 4.13411326225669 -1 -4 -3
277 93 1 0.7 22.2207693945956 106.33514696100455 18.560063931297947 2 -1 3
278 93 2 -0.35 21.76882823658427 106.14906443607823 19.612072716248772 2 -1 3
279 93 2 -0.35 22.67271055260693 106.52122948593087 17.508055146347118 2 -1 3
1158 386 2 -0.35 47.20828603402987 107.60291655458533 22.621716691706414 3 0 5
335 112 2 -0.35 38.98874683799749 97.43900225703587 0.48330380087212854 1 2 -1
355 119 1 0.7 57.047280227076435 104.27987887276042 5.472646778171062 -1 5 -3
357 119 2 -0.35 58.08991901064047 104.1563268496034 4.979453849814516 -1 5 -3
356 119 2 -0.35 56.0046414435124 104.40343089591744 5.965839706527609 -1 5 -3
903 301 2 -0.35 71.3004136478538 103.78730804294692 3.4801647141656185 -3 -9 1
1266 422 2 -0.35 68.54640479285327 108.1902065497024 1.4283886882703394 4 4 1
1264 422 1 0.7 68.67694948253256 107.25392766477226 0.7561239088648946 4 4 1
901 301 1 0.7 71.53226854882564 104.87453886024035 3.148845449978688 -3 -9 1
902 301 2 -0.35 71.76412344979748 105.96176967753377 2.817526185791758 -3 -9 1
156 52 2 -0.35 73.36214333783698 97.64638687149743 5.156788702656437 5 7 1
154 52 1 0.7 74.12271977001923 97.04350685779502 5.7921304846037875 5 7 1
155 52 2 -0.35 74.88329620220148 96.4406268440926 6.427472266551138 5 7 1
939 313 2 -0.35 91.59872098769775 96.05914515211342 6.195971892071554 1 2 1
938 313 2 -0.35 92.8613019126482 97.83101217485587 7.001438627367452 1 2 1
937 313 1 0.7 92.23001145017298 96.94507866348464 6.598705259719503 1 2 1
262 88 1 0.7 111.71315533662913 114.3618310492722 7.429313711241719 3 0 0
264 88 2 -0.35 112.02946231302174 114.65737634630588 6.353115367958969 3 0 0
263 88 2 -0.35 111.39684836023652 114.06628575223851 8.50551205452447 3 0 0
272 91 2 -0.35 95.25403301754173 107.77563697798786 13.5493370425725 -3 3 3
271 91 1 0.7 95.60180949289108 107.95889518494259 14.640697639614356 -3 3 3
273 91 2 -0.35 95.94958596824041 108.14215339189732 15.732058236656211 -3 3 3
219 73 2 -0.35 110.81214432395636 102.91388361215644 4.318600972774696 -1 0 -3
217 73 1 0.7 111.62287181184817 103.12719668193161 5.120360584278335 -1 0 -3
218 73 2 -0.35 112.43359929973997 103.34050975170679 5.922120195781973 -1 0 -3
56 19 2 -0.35 136.28018023156423 107.316579607315 12.913702414705703 -3 2 -3
55 19 1 0.7 137.20527925808207 107.79711948088958 13.422498268696915 -3 2 -3
57 19 2 -0.35 138.1303782845999 108.27765935446416 13.931294122688126 -3 2 -3
1445 482 2 -0.35 131.94379117925402 117.74403146932949 15.579367285706343 -1 1 -2
1444 482 1 0.7 132.21332899278698 118.04241939472817 14.491289157513977 -1 1 -2
1446 482 2 -0.35 132.48286680631992 118.34080732012686 13.40321102932161 -1 1 -2
956 319 2 -0.35 128.31425972135617 117.81724326227013 23.123596606028613 7 4 1
809 270 2 -0.35 139.19599736154777 118.28292762915872 13.73350233341559 2 -9 2
955 319 1 0.7 128.78967212001734 117.99023439581545 22.079730178311664 7 4 1
534 178 2 -0.35 18.777335890733358 140.5242802245887 21.845461828994296 0 4 -3
533 178 2 -0.35 16.87714886658644 140.4183916797743 20.518632190593628 0 4 -3
532 178 1 0.7 17.8272423786599 140.47133595218148 21.182047009793962 0 4 -3
737 246 2 -0.35 8.965506646523444 119.62205487136032 20.069914834354208 -1 -3 -4
736 246 1 0.7 8.32639674188317 119.89761462713015 19.141903330765818 -1 -3 -4
445 149 1 0.7 9.105124899689711 127.13923644685278 6.741010133877172 5 -5 -1
446 149 2 -0.35 9.213666044954664 126.40155068805865 7.629626215802931 5 -5 -1
738 246 2 -0.35 7.6872868372428975 120.17317438289999 18.213891827177427 -1 -3 -4
447 149 2 -0.35 8.996583754424758 127.87692220564689 5.852394051951412 5 -5 -1
900 300 2 -0.35 18.39462020433552 128.88852614114694 0.25740985677783895 -2 1 1
898 300 1 0.7 19.157725370523714 129.6211089551297 0.7334276358531351 -2 1 1
899 300 2 -0.35 19.920830536711907 130.35369176911246 1.2094454149284313 -2 1 1
283 95 1 0.7 48.187576564381025 136.2620524378331 23.387426951972497 -3 5 -2
285 95 2 -0.35 49.232249523323794 136.7459287178048 23.529279532263164 -3 5 -2
30 10 2 -0.35 64.42770966935252 130.41795937555423 14.522507790590083 5 0 -6
28 10 1 0.7 64.05268327079507 130.6692985706901 13.453964946632105 5 0 -6
29 10 2 -0.35 63.67765687223762 130.92063776582597 12.385422102674125 5 0 -6
1036 346 1 0.7 68.31245371051548 125.3692505822551 8.482976341236988 -5 -4 1
1038 346 2 -0.35 68.34736901429818 125.13848683932721 9.619254923502105 -5 -4 1
1037 346 2 -0.35 68.2775384067328 125.600014325183 7.346697758971871 -5 -4 1
177 59 2 -0.35 62.50287749843676 138.0650678593203 12.93162754223435 -7 1 -4
175 59 1 0.7 62.61168770046131 137.0448680099934 12.390376576998028 -7 1 -4
176 59 2 -0.35 62.72049790248587 136.0246681606665 11.849125611761705 -7 1 -4
896 299 2 -0.35 71.77051874192767 130.62038345161076 4.289792821698601 1 0 10
897 299 2 -0.35 73.2972806345918 129.03289074694365 3.560913520484287 1 0 10
895 299 1 0.7 72.53389968825974 129.8266370992772 3.925353171091444 1 0 10
1183 395 1 0.7 98.03432484192531 130.3652506607946 16.558277989711208 -4 3 -2
1185 395 2 -0.35 99.08424432405032 130.78568562633765 16.300395224088273 -4 3 -2
1184 395 2 -0.35 96.98440535980032 129.94481569525158 16.816160755334142 -4 3 -2
694 232 1 0.7 108.13146088075115 133.50315978868804 10.792073177691046 1 -8 8
695 232 2 -0.35 108.0708246944413 132.69565723396047 11.622653021547322 1 -8 8
696 232 2 -0.35 108.192097067061 134.3106623434156 9.961493333834772 1 -8 8
84 28 2 -0.35 116.22334829000657 120.30907320083472 11.542989602145227 0 1 -3
82 28 1 0.7 115.76687987570537 119.42867757843828 12.144770405103143 0 1 -3
83 28 2 -0.35 115.31041146140417 118.54828195604185 12.74655120806106 0 1 -3
808 270 1 0.7 140.14503196966686 118.61643112393452 14.311177615529378 2 -9 2
810 270 2 -0.35 141.09406657778595 118.94993461871032 14.888852897643165 2 -9 2
957 319 2 -0.35 129.26508451867855 118.16322552936079 21.035863750594714 7 4 1
716 239 2 -0.35 7.908905513714554 10.735326484979618 38.71333092969922 1 5 -1
715 239 1 0.7 7.306778305122781 11.412717094015573 39.43733699836345 1 5 -1
717 239 2 -0.35 6.704651096531006 12.090107703051528 40.16134306702769 1 5 -1
1217 406 2 -0.35 28.49294886315384 1.1510736279869693 32.81917953575343 -1 -1 -3
1216 406 1 0.7 28.001969252526678 0.8339866292128199 33.82117497344603 -1 -1 -3
1218 406 2 -0.35 27.510989641899517 0.5168996304386702 34.823170411138626 -1 -1 -3
637 213 1 0.7 29.333865372889072 20.237865124333766 29.500387080485083 0 1 -2
638 213 2 -0.35 29.741290087115818 19.59891174740334 30.378648820711863 0 1 -2
639 213 2 -0.35 28.926440658662326 20.876818501264193 28.622125340258307 0 1 -2
759 253 2 -0.35 38.91340247857223 16.328342341124713 28.123443745564916 0 4 1
758 253 2 -0.35 38.509866645306396 16.368704055078194 30.407722573405042 0 4 1
757 253 1 0.7 38.71163456193931 16.348523198101454 29.26558315948498 0 4 1
361 121 1 0.7 30.54431097388849 14.05129007184334 30.468647672300033 -3 0 0
362 121 2 -0.35 31.387150038425446 14.836326067777936 30.606273238159513 -3 0 0
363 121 2 -0.35 29.701471909351536 13.266254075908742 30.331022106440553 -3 0 0
465 155 2 -0.35 41.82337022992242 14.297433573160847 36.729335623476615 -5 -1 -1
463 155 1 0.7 41.7314778635558 15.031638375066496 37.62269954812432 -5 -1 -1
464 155 2 -0.35 41.63958549718919 15.765843176972146 38.51606347277202 -5 -1 -1
698 233 2 -0.35 46.45069736101305 16.235670540620642 38.68027855406963 -2 -5 3
699 233 2 -0.35 44.82005466428848 15.417024293078414 37.2473714681047 -2 -5 3
697 233 1 0.7 45.63537601265077 15.826347416849528 37.96382501108717 -2 -5 3
484 162 1 0.7 64.7052152278089 22.962738906805097 40.40058206214526 0 -3 6
486 162 2 -0.35 65.39494491928536 22.230930809305924 40.978794705669486 0 -3 6
485 162 2 -0.35 64.01548553633245 23.69454700430427 39.82236941862103 0 -3 6
421 141 1 0.7 54.83496563400096 15.853519997440843 35.51385382021973 1 7 5
423 141 2 -0.35 54.8488444469496 15.215401621544409 34.54524021465021 1 7 5
422 141 2 -0.35 54.821086821052326 16.49163837333728 36.48246742578925 1 7 5
535 179 1 0.7 67.43743588568242 9.63425775958438 31.488235957158462 -4 -2 0
536 179 2 -0.35 68.5766228261554 9.537784173351627 31.684567212472768 -4 -2 0
537 179 2 -0.35 66.29824894520944 9.730731345817132 31.291904701844153 -4 -2 0
1070 357 2 -0.35 86.23414736053418 17.96007561058433 25.090265872827008 -3 5 6
1071 357 2 -0.35 88.2246266973363 18.617518730152003 26.084328523919556 -3 5 6
1069 357 1 0.7 87.22938702893525 18.288797170368166 25.58729719837328 -3 5 6
632 211 2 -0.35 77.10461692422108 11.607392904486362 35.313498832840665 6 2 1
631 211 1 0.7 76.49320859261549 12.498760747258673 35.73450147049893 6 2 1
1178 393 2 -0.35 74.39361283421495 141.28549073131592 44.61199301539348 -7 -2 7
633 211 2 -0.35 75.8818002610099 13.390128590030985 36.155504108157196 6 2 1
305 102 2 -0.35 86.69307790609408 0.634554683141227 44.4312393590994 -1 1 -9
304 102 1 0.7 85.58125756477108 0.3357255209051422 44.573213513145454 -1 1 -9
635 212 2 -0.35 90.532474375973 18.56172833562911 42.739655492671865 0 2 -1
634 212 1 0.7 89.65446017481982 17.849767584177446 42.479265494850566 0 2 -1
636 212 2 -0.35 88.77644597366663 17.137806832725783 42.21887549702926 0 2 -1
302 101 2 -0.35 87.82083903432952 140.75182983368956 48.078508473228766 -1 3 -3
857 286 2 -0.35 106.8188271979694 14.815560554140607 42.820038638513424 0 0 1
858 286 2 -0.35 106.26600978428664 15.034214615256275 45.06257811613323 0 0 1
856 286 1 0.7 106.54241849112802 14.92488758469844 43.94130837732333 0 0 1
1100 367 2 -0.35 110.58240351213733 19.030005048167926 42.75290785043064 -8 8 6
1101 367 2 -0.35 112.10851412748593 20.075236511862517 41.352594465139575 -8 8 6
1099 367 1 0.7 111.34545881981164 19.55262078001522 42.0527511577851 -8 8 6
1469 490 2 -0.35 128.13731620104363 3.385509422093796 41.169241587729246 -1 0 1
1468 490 1 0.7 128.0723659160555 2.269510340060643 41.47896325210234 -1 0 1
1470 490 2 -0.35 128.0074156310674 1.1535112580274907 41.78868491647544 -1 0 1
572 191 2 -0.35 16.205818809359826 31.210649615555724 39.89642038460287 1 0 2
571 191 1 0.7 15.94029270561018 30.53331849343172 38.99291695946812 1 0 2
573 191 2 -0.35 15.674766601860533 29.855987371307723 38.089413534333374 1 0 2
605 202 2 -0.35 23.522861226191207 24.566092265449058 34.56434026881822 -1 -2 2
604 202 1 0.7 24.67001243172668 24.507845562773962 34.72636320937746 -1 -2 2
606 202 2 -0.35 25.817163637262148 24.449598860098863 34.8883861499367 -1 -2 2
21 7 2 -0.35 45.858430907974146 28.53686607706564 46.29189509817432 1 -1 6
19 7 1 0.7 45.053564786179344 27.89817155995745 46.830281427681605 1 -1 6
297 99 2 -0.35 36.152832284412966 27.857077903788888 28.207902504385125 0 0 -4
295 99 1 0.7 35.950691591857016 28.664092607647554 27.399529813005422 0 0 -4
296 99 2 -0.35 35.74855089930107 29.471107311506223 26.59115712162572 0 0 -4
1463 488 2 -0.35 41.5367213922876 24.41041718934224 44.92539463903132 1 5 -2
1462 488 1 0.7 41.983681097097666 23.961440102233578 43.953671119954244 1 5 -2
1464 488 2 -0.35 42.43064080190773 23.51246301512492 42.98194760087717 1 5 -2
548 183 2 -0.35 67.50214090448748 24.42140569272408 27.25785272876783 -8 -1 1
547 183 1 0.7 68.45005042267938 23.914055922801726 26.822348703206167 -8 -1 1
549 183 2 -0.35 69.39795994087129 23.406706152879377 26.386844677644508 -8 -1 1
789 263 2 -0.35 64.9443120395306 27.727474290551367 24.92994774713702 -1 6 0
787 263 1 0.7 65.56912530640736 28.605972656219574 25.358257218259762 -1 6 0
788 263 2 -0.35 66.1939385732841 29.484471021887778 25.786566689382504 -1 6 0
726 242 2 -0.35 85.53909963677367 24.410939814089318 34.047538642768956 1 -1 -4
630 210 2 -0.35 71.95361181675848 39.628670216104325 31.18093052275303 8 1 -2
628 210 1 0.7 72.5453600777993 39.4926321788487 32.169327026173676 8 1 -2
629 210 2 -0.35 73.13710833884012 39.35659414159308 33.15772352959432 8 1 -2
725 242 2 -0.35 87.43358206167187 24.307916312312717 35.38272495929307 1 -1 -4
225 75 2 -0.35 92.37665292481425 33.883760526955264 30.053319977623325 0 1 6
223 75 1 0.7 91.67207653786897 33.04532347106469 30.43567507209262 0 1 6
224 75 2 -0.35 90.9675001509237 32.206886415174125 30.818030166561915 0 1 6
660 220 2 -0.35 90.18444379927675 37.4931840781754 31.7180257141834 3 4 2
659 220 2 -0.35 91.47172947001204 39.422870891578896 31.677970700857806 3 4 2
658 220 1 0.7 90.8280866346444 38.45802748487715 31.6979982075206 3 4 2
840 280 2 -0.35 78.18122823641204 42.03615900543588 38.32828882831879 -3 5 2
838 280 1 0.7 77.90967735713691 42.176448698657026 37.209280820331536 -3 5 2
839 280 2 -0.35 77.6381264778618 42.31673839187817 36.09027281234429 -3 5 2
942 314 2 -0.35 85.07223673067202 31.97710647444378 32.27885334510698 6 -4 -3
940 314 1 0.7 84.23109126527861 32.60362526196745 32.77438186590861 6 -4 -3
941 314 2 -0.35 83.3899457998852 33.23014404949112 33.26991038671024 6 -4 -3
43 15 1 0.7 91.15166204859483 42.9052547526831 44.43849981367395 4 -10 1
724 242 1 0.7 86.48634084922277 24.359428063201015 34.71513180103101 1 -1 -4
45 15 2 -0.35 90.04077905887168 42.57306281137917 44.404039731322214 4 -10 1
44 15 2 -0.35 92.262545038318 43.23744669398703 44.47295989602569 4 -10 1
603 201 2 -0.35 89.85918734990632 40.41420132823967 28.860147064906357 -1 -4 -7
601 201 1 0.7 89.51272220438678 40.60056766662489 27.768895723163165 -1 -4 -7
602 201 2 -0.35 89.16625705886723 40.78693400501011 26.677644381419974 -1 -4 -7
287 96 2 -0.35 91.78224395267425 46.51043443935258 44.17099010297681 -1 -5 3
286 96 1 0.7 92.8255561506899 46.27125323316271 43.72389726241839 -1 -5 3
288 96 2 -0.35 93.86886834870558 46.03207202697285 43.27680442185997 -1 -5 3
700 234 1 0.7 115.66636872569103 46.33159433351329 27.100090593501815 0 -3 -5
428 143 2 -0.35 107.57860903182852 36.894045529648025 35.79393557667203 5 -4 -2
427 143 1 0.7 108.20447258106269 35.93466694539453 35.61093953896492 5 -4 -2
429 143 2 -0.35 108.83033613029686 34.97528836114103 35.427943501257815 5 -4 -2
701 234 2 -0.35 116.06258614770692 47.195390807435 26.43490835822313 0 -3 -5
702 234 2 -0.35 115.27015130367515 45.467797859591585 27.7652728287805 0 -3 -5
1058 353 2 -0.35 128.38205288324852 44.29817893230323 29.562337614253686 -2 -5 4
1057 353 1 0.7 127.42819343464485 44.8326661708866 29.17494176489579 -2 -5 4
1059 353 2 -0.35 126.47433398604117 45.367153409469964 28.787545915537898 -2 -5 4
527 176 2 -0.35 11.268274192163013 51.04758746430835 24.239888273490767 1 -2 1
1245 415 2 -0.35 17.17779027095191 54.079621304533276 31.485046821875027 4 1 -2
1243 415 1 0.7 17.29936938952838 55.18032115721587 31.13967983991042 4 1 -2
1244 415 2 -0.35 17.42094850810485 56.281021009898474 30.794312857945815 4 1 -2
347 116 2 -0.35 22.290216469376634 71.72811054762 31.489762340964564 5 2 -2
528 176 2 -0.35 13.410605372758381 51.56210348403219 23.513190001787436 1 -2 1
526 176 1 0.7 12.339439782460698 51.30484547417027 23.8765391376391 1 -2 1
471 157 2 -0.35 5.081000151865918 49.18872079175061 46.48798667139736 -1 4 -4
469 157 1 0.7 4.608325302488466 48.731811429683944 45.532260601009234 -1 4 -4
470 157 2 -0.35 4.1356504531110145 48.27490206761727 44.57653453062112 -1 4 -4
403 135 1 0.7 28.98437461195756 69.76581364466125 26.654828782338868 4 -1 2
404 135 2 -0.35 29.148244062668272 70.88499270780689 26.912093291626388 4 -1 2
945 315 2 -0.35 35.870478815263965 54.521629496836965 26.957959329199024 2 2 -2
943 315 1 0.7 35.10388252604016 53.77810817909376 26.505072831928526 2 2 -2
944 315 2 -0.35 34.33728623681635 53.03458686135056 26.052186334658032 2 2 -2
405 135 2 -0.35 28.820505161246846 68.64663458151563 26.397564273051344 4 -1 2
206 69 2 -0.35 49.78535468807353 58.181027349548174 29.77129489730421 11 2 0
205 69 1 0.7 49.026593393808895 58.36796703830293 30.628578310822306 11 2 0
207 69 2 -0.35 48.26783209954426 58.55490672705768 31.485861724340403 11 2 0
934 312 1 0.7 63.88384846896859 65.0490460573464 26.51111733648123 -2 2 -6
936 312 2 -0.35 63.77617425899241 63.93521050534129 26.2055414414962 -2 2 -6
935 312 2 -0.35 63.99152267894477 66.1628816093515 26.81669323146626 -2 2 -6
1415 472 2 -0.35 55.091831271476934 51.33398876535285 37.829395220390154 -5 -2 -2
1414 472 1 0.7 55.526102386217886 51.90865716540212 36.92012912683609 -5 -2 -2
1416 472 2 -0.35 55.96037350095884 52.48332556545138 36.010863033282014 -5 -2 -2
1065 355 2 -0.35 50.18432653145863 58.90469166107338 45.41816711375177 4 -3 -1
1063 355 1 0.7 51.207591399775744 59.38887589669101 45.671336296805904 4 -3 -1
1064 355 2 -0.35 52.23085626809285 59.873060132308645 45.924505479860045 4 -3 -1
32 11 2 -0.35 89.43369319695891 60.76172928404436 25.363861720008423 1 6 -3
33 11 2 -0.35 89.07014135554715 60.29995427077846 27.608186539578032 1 6 -3
480 160 2 -0.35 91.50479371348845 66.33755900528325 40.18933907193458 -2 -1 -7
478 160 1 0.7 91.83834356286631 65.3427982600915 39.694570886005614 -2 -1 -7
479 160 2 -0.35 92.17189341224419 64.34803751489974 39.19980270007665 -2 -1 -7
826 276 1 0.7 78.2405405139981 59.89758495857371 41.88004343673258 9 -5 2
827 276 2 -0.35 77.85122321604537 60.1045734153459 40.80710922613098 9 -5 2