LAMMPS (29 Aug 2024 - Update 1)
  using 1 OpenMP thread(s) per MPI task
package gpu 1 gpuID 0
# GCMC for CO2 molecular fluid, rigid/small/nvt dynamics
# Rigid CO2 TraPPE model
# [Potoff and J.I. Siepmann, Vapor-liquid equilibria of
# mixtures containing alkanes, carbon dioxide and
# nitrogen AIChE J., 47,1676-1682 (2001)].

# global model settings

units           real
atom_style      full
boundary        p p p
pair_style      lj/cut/coul/long  12
pair_modify     mix arithmetic shift yes
kspace_style    pppm 1.0e-4
bond_style      harmonic
angle_style     harmonic
neigh_modify    one 4000

# box, start molecules on simple cubic lattice
region          mbox block 0 ${lbox} 0 ${lbox} 0 ${lbox} units box
region          mbox block 0 141.5 0 ${lbox} 0 ${lbox} units box
region          mbox block 0 141.5 0 141.5 0 ${lbox} units box
region          mbox block 0 141.5 0 141.5 0 141.5 units box
create_box      2 mbox                                       bond/types 1                                angle/types 1                               extra/bond/per/atom 2                       extra/angle/per/atom 1                      extra/special/per/atom 2
Created orthogonal box = (0 0 0) to (141.5 141.5 141.5)
  1 by 1 by 1 MPI processor grid
molecule        co2mol ../CO2.txt
Read molecule template co2mol:
# CO2 molecule file. TraPPE model.
  1 molecules
  0 fragments
  3 atoms with max type 2
  2 bonds with max type 1
  1 angles with max type 1
  0 dihedrals with max type 0
  0 impropers with max type 0
create_atoms   	0 random ${nmols} 34578 mbox mol co2mol 464563 overlap 1.2
create_atoms   	0 random 500 34578 mbox mol co2mol 464563 overlap 1.2
Created 1500 atoms
  using lattice units in orthogonal box = (0 0 0) to (141.5 141.5 141.5)
  create_atoms CPU = 0.008 seconds

# rigid CO2 TraPPE model

pair_coeff      1   1  0.053649   2.800
pair_coeff      2   2  0.156973   3.050
bond_coeff      1       0       1.16
angle_coeff     1       0       180

# masses

mass 1 12.0107
mass 2 15.9994

write_data init_conf.data  pair ij
System init for write_data ...
PPPM initialization ...
  using 12-bit tables for long-range coulomb (src/kspace.cpp:342)
  G vector (1/distance) = 0.16562227
  grid = 30 30 30
  stencil order = 5
  estimated absolute RMS force accuracy = 0.029429479
  estimated relative force accuracy = 8.8626001e-05
  using double precision FFTW3
  3d grid and FFT values/proc = 42875 27000
Generated 1 of 1 mixed pair_coeff terms from arithmetic mixing rule

# MD settings

group           co2 type 1 2
1500 atoms in group co2
velocity       	all create 300 54654
timestep        0.25

# rigid constraints with thermostat
fix             myrigidnvt co2 rigid/nvt molecule temp 300 300 $(100*dt)
fix             myrigidnvt co2 rigid/nvt molecule temp 300 300 25
  500 rigid bodies with 1500 atoms

thermo 1000
thermo_style custom step temp density press ke pe etotal


variable    mvol equal vol
variable    mden equal density
variable	mtmp equal temp
variable    mpre equal press

fix mydat all ave/time 1 4000 4000 v_mtmp v_mden v_mpre file statistics.dat ## every 1ps

run 4000000 ## 1ns

CITE-CITE-CITE-CITE-CITE-CITE-CITE-CITE-CITE-CITE-CITE-CITE-CITE

Your simulation uses code contributions which should be cited:

- GPU package (short-range, long-range and three-body potentials): doi:10.1016/j.cpc.2010.12.021, doi:10.1016/j.cpc.2011.10.012, doi:10.1016/j.cpc.2013.08.002, doi:10.1016/j.commatsci.2014.10.068, doi:10.1016/j.cpc.2016.10.020, doi:10.3233/APC200086

@Article{Brown11,
 author = {W. M. Brown and P. Wang and S. J. Plimpton and A. N. Tharrington},
 title = {Implementing Molecular Dynamics on Hybrid High Performance Computers---Short Range Forces},
 journal = {Comput.\ Phys.\ Commun.},
 year =    2011,
 volume =  182,
 pages =   {898--911},
 doi =     {10.1016/j.cpc.2010.12.021}
}

@Article{Brown12,
 author = {W. M. Brown and A. Kohlmeyer and S. J. Plimpton and A. N. Tharrington},
 title = {Implementing Molecular Dynamics on Hybrid High Performance Computers - Particle-Particle Particle-Mesh},
 journal = {Comput.\ Phys.\ Commun.},
 year =    2012,
 volume =  183,
 doi =     {10.1016/j.cpc.2011.10.012},
 pages =   {449--459}
}

@Article{Brown13,
 author = {W. M. Brown and Y. Masako},
 title = {Implementing Molecular Dynamics on Hybrid High Performance Computers---Three-Body Potentials},
 journal = {Comput.\ Phys.\ Commun.},
 year =    2013,
 volume =  184,
 pages =   {2785--2793},
 doi =     {10.1016/j.cpc.2013.08.002},
}

@Article{Trung15,
 author = {T. D. Nguyen and S. J. Plimpton},
 title = {Accelerating Dissipative Particle Dynamics Simulations for Soft Matter Systems},
 journal = {Comput.\ Mater.\ Sci.},
 year =    2015,
 doi =     {10.1016/j.commatsci.2014.10.068},
 volume =  100,
 pages =   {173--180}
}

@Article{Trung17,
 author = {T. D. Nguyen},
 title = {{GPU}-Accelerated {T}ersoff Potentials for Massively Parallel
    Molecular Dynamics Simulations},
 journal = {Comput.\ Phys.\ Commun.},
 year =    2017,
 doi =     {10.1016/j.cpc.2016.10.020},
 volume =  212,
 pages =   {113--122}
}

@inproceedings{Nikolskiy19,
 author = {V. Nikolskiy and V. Stegailov},
 title = {{GPU} Acceleration of Four-Site Water Models in {LAMMPS}},
 booktitle = {Proceedings of the International Conference on Parallel
    Computing (ParCo 2019), Prague, Czech Republic},
 doi =     {10.3233/APC200086},
 year =    2019
}

CITE-CITE-CITE-CITE-CITE-CITE-CITE-CITE-CITE-CITE-CITE-CITE-CITE

PPPM initialization ...
  using 12-bit tables for long-range coulomb (src/kspace.cpp:342)
  G vector (1/distance) = 0.16562227
  grid = 30 30 30
  stencil order = 5
  estimated absolute RMS force accuracy = 0.029429479
  estimated relative force accuracy = 8.8626001e-05
  using double precision FFTW3
  3d grid and FFT values/proc = 42875 27000
Generated 1 of 1 mixed pair_coeff terms from arithmetic mixing rule
Per MPI rank memory allocation (min/avg/max) = 11.38 | 11.38 | 11.38 Mbytes
   Step          Temp         Density         Press          KinEng         PotEng         TotEng    
         0   307.41471      0.012897222   -150.36301      762.70438      5776.608       6539.3123    
      1000   334.61376      0.012897222    13.91008       830.18596     -15.2359        814.95006    
      2000   306.509        0.012897222    6.3519217      760.45729     -19.965659      740.49163    
      3000   305.94544      0.012897222    4.0357985      759.05906     -22.964042      736.09502    
      4000   308.86173      0.012897222    1.4219397      766.29447     -28.195075      738.09939    
      5000   292.12042      0.012897222    11.815473      724.7588      -30.182015      694.57679    
      6000   298.33459      0.012897222    8.1410302      740.17633     -34.812349      705.36398    
      7000   302.39016      0.012897222    7.3653913      750.23831     -34.524593      715.71372    
      8000   299.83481      0.012897222    7.6833999      743.89843     -37.052882      706.84555    
      9000   309.09738      0.012897222    7.2902998      766.87913     -36.912157      729.96697    
     10000   298.18875      0.012897222    6.3463387      739.8145      -37.46591       702.34859    
     11000   286.55347      0.012897222    6.9310033      710.94706     -37.858574      673.08849    
     12000   305.52717      0.012897222    7.2545408      758.02133     -41.131983      716.88935    
     13000   299.1237       0.012897222    8.5935787      742.13413     -40.157614      701.97652    
     14000   310.67874      0.012897222    5.5292196      770.80252     -42.488313      728.3142     
     15000   304.56769      0.012897222    5.3681743      755.64083     -38.11174       717.52909    
     16000   288.85197      0.012897222    7.8163949      716.6497      -47.355597      669.29411    
     17000   300.56139      0.012897222    8.5700606      745.70109     -45.062478      700.63861    
     18000   308.00297      0.012897222    7.0788079      764.16386     -42.939204      721.22465    
     19000   307.4678       0.012897222    7.5345808      762.83609     -50.344521      712.49157    
     20000   288.19671      0.012897222    6.7644004      715.02398     -51.157288      663.86669    
     21000   300.18355      0.012897222    8.6250054      744.76366     -52.056544      692.70711    
     22000   325.2303       0.012897222   -0.59011995     806.90535     -53.484611      753.42074    
     23000   298.03247      0.012897222    4.3619025      739.42676     -59.701969      679.7248     
     24000   299.0637       0.012897222    6.1275413      741.98527     -58.488476      683.4968     
     25000   306.30933      0.012897222    14.931659      759.9619      -61.511318      698.45058    
     26000   297.16619      0.012897222    6.5855602      737.2775      -60.460232      676.81727    
     27000   307.30365      0.012897222    0.98999906     762.42882     -59.267812      703.161      
     28000   303.46096      0.012897222    8.1822041      752.895       -59.092168      693.80283    
     29000   296.18916      0.012897222    2.8162886      734.85348     -60.386667      674.46681    
     30000   288.34939      0.012897222    7.0178039      715.40279     -61.319763      654.08303    
     31000   305.51931      0.012897222    8.9127099      758.00183     -61.457144      696.54469    
     32000   305.1805       0.012897222    6.0121288      757.16122     -63.089337      694.07189    
     33000   297.36321      0.012897222    6.1584922      737.76633     -61.655432      676.1109     
     34000   284.50623      0.012897222    1.8631876      705.8678      -66.211704      639.6561     
     35000   301.02767      0.012897222    9.1063542      746.85794     -61.297332      685.56061    
     36000   307.26617      0.012897222    7.8285514      762.33584     -66.751456      695.58438    
     37000   303.19294      0.012897222    5.5221157      752.23005     -68.933712      683.29634    
     38000   293.5277       0.012897222    6.3677748      728.25032     -67.033642      661.21668    
     39000   306.03633      0.012897222    3.8083622      759.28457     -64.725484      694.55909    
     40000   303.82317      0.012897222    5.5111147      753.79367     -66.584541      687.20913    
     41000   292.98609      0.012897222    6.9134508      726.90658     -64.173442      662.73314    
     42000   285.72783      0.012897222    6.6524711      708.89862     -67.422735      641.47588    
     43000   299.3748       0.012897222    5.9131993      742.75713     -72.133571      670.62356    
     44000   314.51533      0.012897222    6.9880225      780.32121     -74.85787       705.46334    
     45000   302.33945      0.012897222    7.563213       750.11251     -76.482518      673.62999    
     46000   290.08371      0.012897222    4.6851811      719.70567     -80.882616      638.82305    
     47000   304.16509      0.012897222    6.9911644      754.64197     -83.110381      671.53159    
     48000   298.99582      0.012897222   -0.42757199     741.81687     -86.026742      655.79012    
     49000   289.50332      0.012897222   -6.5515441      718.2657      -80.636969      637.62874    
     50000   301.61222      0.012897222   -1.8984361      748.30823     -85.171805      663.13642    
     51000   295.75303      0.012897222    11.594738      733.77141     -79.89465       653.87676    
     52000   307.75913      0.012897222    10.153983      763.55889     -80.052749      683.50615    
     53000   294.10383      0.012897222    7.2581312      729.6797      -56.201128      673.47857    
     54000   291.96308      0.012897222    1.8075874      724.36844     -74.14871       650.21973    
     55000   297.19761      0.012897222    6.6641747      737.35546     -76.495114      660.86034    
     56000   304.56877      0.012897222    5.7036447      755.64352     -78.717197      676.92632    
     57000   294.20272      0.012897222    6.4886021      729.92505     -80.573057      649.35199    
     58000   310.98073      0.012897222    13.29264       771.55177     -78.988587      692.56318    
     59000   310.92397      0.012897222    5.6286864      771.41094     -74.847512      696.56343    
     60000   299.73768      0.012897222    6.6950038      743.65744     -78.138001      665.51944    
     61000   298.52028      0.012897222    9.1156763      740.63705     -78.206637      662.43041    
     62000   300.77996      0.012897222    6.9564752      746.24338     -74.229474      672.01391    
     63000   304.09796      0.012897222    7.9528281      754.47543     -71.906241      682.56919    
     64000   306.12035      0.012897222    5.8540707      759.49303     -77.873829      681.6192     
     65000   292.46061      0.012897222    6.4606727      725.60283     -78.17538       647.42745    
     66000   290.20021      0.012897222    4.688234       719.99472     -85.95745       634.03727    
     67000   302.77528      0.012897222    7.5419289      751.19381     -82.824943      668.36887    
     68000   319.22669      0.012897222    10.144127      792.01022     -87.426654      704.58356    
     69000   298.06021      0.012897222    8.0002955      739.49559     -82.258511      657.23708    
     70000   296.12159      0.012897222    6.3811054      734.68582     -84.34873       650.33709    
     71000   307.14805      0.012897222    3.1882703      762.04278     -89.844213      672.19856    
     72000   312.03666      0.012897222    8.3309377      774.17156     -88.987136      685.18442    
     73000   289.11801      0.012897222    12.263654      717.30976     -81.287808      636.02195    
     74000   297.2104       0.012897222    5.4534719      737.3872      -81.520853      655.86635    
     75000   302.60653      0.012897222    7.6919773      750.77515     -80.992157      669.78299    
     76000   300.87982      0.012897222    2.9541945      746.49113     -72.689254      673.80188    
     77000   300.85533      0.012897222    2.9010783      746.43036     -74.771353      671.659      
     78000   310.34373      0.012897222    9.8531382      769.97136     -72.926971      697.04439    
     79000   298.08786      0.012897222    8.0252032      739.56419     -72.061114      667.50308    
     80000   286.66112      0.012897222    0.30290966     711.21414     -74.905761      636.30838    
     81000   299.5647       0.012897222   -3.0847203      743.22828     -79.065132      664.16315    
     82000   322.55406      0.012897222    4.252131       800.2655      -76.85601       723.40949    
     83000   295.69596      0.012897222    9.1230078      733.62982     -74.56707       659.06275    
     84000   289.23697      0.012897222   -3.2979518      717.6049      -80.639454      636.96545    
     85000   300.34571      0.012897222   -5.5679661      745.16598     -82.437448      662.72853    
     86000   315.0712       0.012897222    12.832971      781.70034     -82.400024      699.30032    
     87000   290.01634      0.012897222    7.9388763      719.53853     -81.00352       638.53501    
     88000   288.36777      0.012897222    5.5398724      715.44839     -79.364131      636.08426    
     89000   301.09164      0.012897222    6.0866844      747.01666     -85.50397       661.51269    
     90000   318.13167      0.012897222    7.7429519      789.29344     -82.618195      706.67524    
     91000   299.28752      0.012897222    7.6645818      742.5406      -83.500149      659.04045    
     92000   285.87192      0.012897222    5.7416668      709.25611     -80.274796      628.98132    
     93000   285.3263       0.012897222    6.302613       707.90241     -83.451074      624.45133    
     94000   303.98739      0.012897222    6.9876574      754.2011      -85.088117      669.11298    
     95000   301.8794       0.012897222    10.187353      748.97112     -89.45712       659.514      
     96000   289.11964      0.012897222    6.7043149      717.3138      -79.522968      637.79083    
     97000   308.6483       0.012897222    1.0487415      765.76495     -88.023607      677.74134    
     98000   305.30751      0.012897222    7.5112421      757.47635     -87.491459      669.98489    
     99000   300.62817      0.012897222    7.9769042      745.86677     -83.064532      662.80224    
    100000   298.03344      0.012897222    7.0577306      739.42919     -78.83212       660.59707    
    101000   301.18563      0.012897222    6.4749297      747.24984     -79.268138      667.9817     
    102000   302.95532      0.012897222    7.1192006      751.6405      -87.630557      664.00994    
    103000   284.65241      0.012897222    7.4186579      706.23048     -86.527212      619.70327    
    104000   292.31986      0.012897222    7.0955887      725.25364     -79.832894      645.42074    
    105000   309.43251      0.012897222    10.339149      767.71058     -80.909136      686.80144    
    106000   311.94644      0.012897222    10.429944      773.94773     -83.265602      690.68212    
    107000   288.95795      0.012897222    7.8206247      716.91263     -79.809614      637.10301    
    108000   300.28559      0.012897222    1.5058948      745.01683     -80.495813      664.52102    
    109000   308.50882      0.012897222    6.5279263      765.41889     -73.702504      691.71639    
    110000   303.55385      0.012897222    6.5827968      753.12547     -78.498283      674.62719    
    111000   288.27568      0.012897222    11.088123      715.21992     -80.055915      635.164      
    112000   300.29471      0.012897222    5.3423997      745.03945     -81.268437      663.77101    
    113000   312.45095      0.012897222    7.7295706      775.19942     -81.205367      693.99405    
    114000   311.64933      0.012897222    7.3713205      773.21058     -82.064993      691.14559    
    115000   289.01419      0.012897222    5.9347544      717.05218     -77.48965       639.56253    
    116000   301.03457      0.012897222    6.3326802      746.87505     -76.582485      670.29257    
    117000   311.96287      0.012897222    4.9727961      773.98849     -78.763347      695.22514    
    118000   295.26912      0.012897222    6.2272166      732.57082     -80.735993      651.83482    
    119000   308.37844      0.012897222    8.0663368      765.09541     -85.872642      679.22277    
    120000   315.97919      0.012897222    9.0187983      783.95307     -84.955567      698.99751    
    121000   293.71895      0.012897222    10.187259      728.72482     -78.352333      650.37249    
    122000   295.02745      0.012897222    0.71441335     731.97123     -87.547484      644.42375    
    123000   314.75935      0.012897222    5.0428268      780.92663     -86.176159      694.75047    
    124000   299.73533      0.012897222    8.3777915      743.65161     -84.701064      658.95054    
    125000   288.79556      0.012897222    2.5866679      716.50976     -81.294517      635.21524    
    126000   315.06252      0.012897222    5.6827214      781.67881     -87.741762      693.93705    
    127000   299.92257      0.012897222    7.3351795      744.11617     -84.849757      659.26641    
    128000   292.34191      0.012897222    6.4393707      725.30833     -85.134677      640.17365    
    129000   298.25824      0.012897222    3.5697208      739.98691     -83.6358        656.35111    
    130000   324.07599      0.012897222    8.5012829      804.04145     -85.636049      718.4054     
    131000   285.50623      0.012897222    9.3529267      708.34882     -92.760878      615.58794    
    132000   302.01319      0.012897222    2.2577726      749.30305     -85.166602      664.13645    
    133000   309.48831      0.012897222    7.2580104      767.84904     -82.328338      685.5207     
    134000   288.65123      0.012897222    6.0289496      716.15165     -81.139531      635.01212    
    135000   295.68662      0.012897222   -0.52922658     733.60666     -82.263333      651.34333    
    136000   304.43992      0.012897222    3.4595502      755.32384     -84.58872       670.73512    
    137000   308.26774      0.012897222    7.2921503      764.82075     -82.906705      681.91404    
    138000   296.64797      0.012897222    7.1592234      735.99179     -81.704556      654.28723    
    139000   296.06669      0.012897222    5.4928682      734.54962     -87.922737      646.62688    
    140000   300.06111      0.012897222    6.7580334      744.45988     -86.265545      658.19434    
    141000   286.10446      0.012897222    3.3373028      709.83305     -85.767931      624.06512    
    142000   300.16577      0.012897222    5.4352454      744.71956     -87.587377      657.13218    
    143000   304.84929      0.012897222    7.9568035      756.33949     -83.536018      672.80347    
    144000   312.36497      0.012897222    6.8892268      774.98609     -92.471502      682.51459    
    145000   297.62497      0.012897222    5.0194312      738.41576     -87.356383      651.05938    
    146000   309.52808      0.012897222    10.41582       767.9477      -80.934668      687.01303    
    147000   299.293        0.012897222    8.4892208      742.55419     -80.483765      662.07043    
    148000   291.16442      0.012897222    5.9495228      722.38695     -83.911093      638.47586    
    149000   314.15879      0.012897222    4.3192525      779.43661     -87.650588      691.78602    
    150000   300.6523       0.012897222    6.6752038      745.92664     -82.760013      663.16663    
    151000   293.16511      0.012897222    5.8942443      727.35073     -82.673584      644.67715    
    152000   292.96679      0.012897222    5.0466742      726.85869     -78.91542       647.94327    
    153000   300.97773      0.012897222    7.4215555      746.73404     -82.065001      664.66904    
    154000   284.07973      0.012897222    8.0258912      704.80964     -79.896539      624.9131     
    155000   300.29084      0.012897222    4.7010528      745.02984     -79.587944      665.4419     
    156000   286.20846      0.012897222    6.2642771      710.09109     -83.159968      626.93112    
    157000   290.0823       0.012897222    6.6090021      719.70218     -78.479461      641.22272    
    158000   305.38768      0.012897222    5.974882       757.67524     -78.520821      679.15442    
    159000   298.1908       0.012897222    5.4813138      739.81961     -80.62345       659.19616    
    160000   301.29421      0.012897222    12.828918      747.51924     -76.108458      671.41078    
    161000   305.02976      0.012897222    8.4276113      756.78725     -81.063406      675.72385    
    162000   289.8107       0.012897222    7.8211059      719.02833     -80.567473      638.46086    
    163000   296.7622       0.012897222    8.5229052      736.27521     -80.251251      656.02395    
    164000   298.69569      0.012897222    1.2385736      741.07225     -80.642308      660.42994    
    165000   309.66274      0.012897222    10.89548       768.28179     -85.25688       683.02491    
    166000   294.48824      0.012897222    8.8628945      730.63344     -83.806044      646.82739    
    167000   306.33313      0.012897222    5.9080645      760.02093     -84.05131       675.96962    
    168000   287.39573      0.012897222    4.1765867      713.03672     -91.819873      621.21684    
    169000   305.67465      0.012897222    3.2855656      758.38724     -91.479081      666.90816    
    170000   304.37255      0.012897222    8.9465987      755.15669     -89.884829      665.27186    
    171000   297.91923      0.012897222    6.3807747      739.14581     -83.907132      655.23868    
    172000   297.84839      0.012897222    6.4950601      738.97006     -90.021832      648.94822    
    173000   299.95642      0.012897222    3.9936691      744.20015     -87.831516      656.36864    
    174000   302.64108      0.012897222    7.4852861      750.86085     -86.404583      664.45627    
    175000   294.41457      0.012897222    7.3517164      730.45066     -84.86741       645.58325    
    176000   297.5907       0.012897222    6.7858822      738.33074     -82.16514       656.1656     
    177000   304.79098      0.012897222    7.84569        756.19483     -80.906283      675.28855    
    178000   289.73326      0.012897222    7.0464615      718.8362      -83.490191      635.34601    
    179000   299.92629      0.012897222    4.4725776      744.12539     -81.763128      662.36226    
    180000   312.28185      0.012897222    5.9325175      774.77987     -83.732091      691.04778    
    181000   306.77264      0.012897222    7.6544198      761.11138     -81.972681      679.1387     
    182000   288.16677      0.012897222    6.3452068      714.94969     -82.416674      632.53302    
    183000   306.24838      0.012897222    6.0364287      759.81068     -85.238301      674.57238    
    184000   299.69769      0.012897222    8.8990032      743.55822     -84.658654      658.89957    
    185000   288.50696      0.012897222    4.6726838      715.79372     -89.169831      626.62388    
    186000   296.44155      0.012897222    6.2378627      735.47965     -87.888213      647.59143    
    187000   295.07329      0.012897222    17.974428      732.08497     -90.877738      641.20723    
    188000   306.95146      0.012897222    3.9357194      761.55503     -93.344615      668.21042    
    189000   299.79088      0.012897222    2.7675683      743.78944     -86.161169      657.62827    
    190000   303.97548      0.012897222    4.9649022      754.17155     -89.196138      664.97541    
    191000   307.08135      0.012897222    7.403041       761.8773      -83.359698      678.51761    
    192000   299.3494       0.012897222    4.8732543      742.69411     -85.321404      657.37271    
    193000   296.69802      0.012897222    4.8634143      736.11597     -84.323411      651.79256    
    194000   304.79972      0.012897222    7.0119787      756.21651     -83.421302      672.7952     
    195000   301.85438      0.012897222    9.7624112      748.90903     -83.982755      664.92627    
    196000   295.24434      0.012897222    8.0384151      732.50936     -78.288843      654.22051    
    197000   290.5586       0.012897222   -0.17890661     720.88389     -83.510276      637.37361    
    198000   308.30421      0.012897222    7.1532868      764.91124     -83.363032      681.54821    
    199000   296.48188      0.012897222    6.9999571      735.57972     -79.598269      655.98145    
    200000   305.39977      0.012897222   -3.7074165      757.70524     -79.099082      678.60616    
    201000   311.67126      0.012897222    4.7892054      773.26498     -81.850013      691.41496    
    202000   294.49043      0.012897222    8.3681756      730.63887     -81.847306      648.79156    
    203000   286.53706      0.012897222    5.2108661      710.90634     -85.641903      625.26444    
    204000   300.68441      0.012897222    6.1845127      746.00631     -86.563703      659.44261    
    205000   317.67457      0.012897222    5.9419827      788.15937     -81.018891      707.14047    
    206000   314.48244      0.012897222    7.2456401      780.23961     -81.260761      698.97885    
    207000   297.99103      0.012897222    7.7358573      739.32396     -79.493927      659.83003    
    208000   302.94328      0.012897222    6.6660196      751.61063     -83.010412      668.60021    
    209000   302.15805      0.012897222    7.6153888      749.66245     -77.68507       671.97738    
    210000   298.87973      0.012897222    6.6742016      741.52885     -80.175444      661.35341    
    211000   304.89823      0.012897222    5.9254299      756.46092     -77.564506      678.89642    
    212000   299.48566      0.012897222    7.9885641      743.03218     -71.781034      671.25114    
    213000   293.11754      0.012897222    6.9554088      727.23269     -66.911493      660.3212     
    214000   302.04477      0.012897222    7.581582       749.3814      -70.186316      679.19508    
    215000   303.6763       0.012897222    6.8244566      753.42927     -69.824609      683.60466    
    216000   296.54364      0.012897222    7.3441667      735.73295     -70.167187      665.56576    
    217000   302.25726      0.012897222    7.5963702      749.9086      -67.103268      682.80533    
    218000   317.59868      0.012897222    4.6961156      787.97108     -72.227939      715.74314    
    219000   289.26126      0.012897222    0.76010511     717.66516     -69.823756      647.8414     
    220000   290.98309      0.012897222    1.9340625      721.93708     -75.513379      646.4237     
    221000   307.74638      0.012897222    6.2038895      763.52725     -66.85258       696.67467    
    222000   306.47286      0.012897222    6.9083159      760.36761     -73.736727      686.63088    
    223000   302.2509       0.012897222    9.7878582      749.8928      -70.726561      679.16624    
    224000   294.14908      0.012897222    6.0733307      729.79197     -68.352962      661.43901    
    225000   299.42272      0.012897222   -0.055576243    742.87601     -66.177382      676.69863    
    226000   303.24282      0.012897222    6.3144358      752.35381     -67.659751      684.69406    
    227000   306.96219      0.012897222    7.017351       761.58167     -65.005237      696.57643    
    228000   286.87376      0.012897222    8.5928739      711.7417      -66.490986      645.25071    
    229000   292.24687      0.012897222    5.556546       725.07254     -65.515431      659.55711    
    230000   308.16621      0.012897222    3.6491179      764.56886     -63.936679      700.63218    
    231000   301.6226       0.012897222    6.6818043      748.33398     -62.347041      685.98694    
    232000   288.15073      0.012897222    5.512284       714.90991     -64.238133      650.67178    
    233000   287.88723      0.012897222    6.6551759      714.25615     -66.064905      648.19124    
    234000   304.46135      0.012897222    7.5317638      755.37701     -63.814056      691.56295    
    235000   302.95234      0.012897222    5.4452217      751.63311     -66.001759      685.63135    
    236000   287.61493      0.012897222    5.9275801      713.58056     -66.96388       646.61668    
    237000   305.05836      0.012897222    8.7291476      756.85821     -59.221717      697.63649    
    238000   315.17122      0.012897222    6.5567863      781.94848     -59.108702      722.83978    
    239000   297.09116      0.012897222    4.1341254      737.09135     -57.760407      679.33094    
    240000   283.45695      0.012897222    8.8151541      703.26451     -59.635303      643.6292     
    241000   306.99754      0.012897222    7.3615099      761.66937     -57.318987      704.35038    
    242000   302.65092      0.012897222    1.2560088      750.88527     -62.357188      688.52808    
    243000   294.18516      0.012897222    10.142022      729.88148     -59.657296      670.22418    
    244000   289.28666      0.012897222    6.8517937      717.72819     -61.180186      656.548      
    245000   307.57781      0.012897222    6.7923782      763.10902     -58.639255      704.46976    
    246000   294.24243      0.012897222    7.1816235      730.02359     -56.078613      673.94497    
    247000   287.34837      0.012897222    0.59552591     712.91923     -57.537321      655.38191    
    248000   308.24113      0.012897222    7.1055526      764.75473     -59.635205      705.11953    
    249000   299.87632      0.012897222    9.7544261      744.00142     -58.622286      685.37913    
    250000   287.93992      0.012897222    6.4267279      714.38689     -54.617796      659.76909    
    251000   300.70457      0.012897222    3.3976289      746.05632     -54.274711      691.78161    
    252000   310.99583      0.012897222    7.1090603      771.58922     -55.704394      715.88483    
    253000   280.95232      0.012897222    12.263854      697.05046     -54.994983      642.05547    
    254000   298.68531      0.012897222    4.6986926      741.04649     -55.265572      685.78092    
    255000   318.67443      0.012897222    8.0810962      790.64004     -51.19142       739.44862    
    256000   295.76753      0.012897222    15.79492       733.8074      -48.928649      684.87875    
    257000   282.62938      0.012897222    8.1394675      701.21127     -52.053801      649.15747    
    258000   302.33396      0.012897222    1.952947       750.09889     -52.828606      697.27029    
    259000   311.87875      0.012897222    3.7577023      773.77978     -52.472515      721.30726    
    260000   300.19226      0.012897222    9.6361578      744.78528     -56.310846      688.47443    
    261000   303.91475      0.012897222    9.4376757      754.02087     -57.839826      696.18105    
    262000   293.81192      0.012897222    7.867518       728.95548     -52.843159      676.11232    
    263000   299.85955      0.012897222    4.2648058      743.95982     -54.418572      689.54125    
    264000   314.73916      0.012897222    10.120781      780.87654     -57.980643      722.8959     
    265000   296.90614      0.012897222    8.6112726      736.63232     -57.022487      679.60983    
    266000   297.57426      0.012897222    6.0398856      738.28995     -57.537856      680.75209    
    267000   291.45155      0.012897222    6.6311978      723.09933     -53.686806      669.41252    
    268000   305.59392      0.012897222    6.3684413      758.18694     -56.227574      701.95937    
    269000   323.45227      0.012897222    9.8123562      802.494       -52.315258      750.17874    
    270000   294.68383      0.012897222    4.4865157      731.1187      -57.586388      673.53231    
    271000   291.78385      0.012897222    7.8013804      723.92378     -56.332591      667.59118    
    272000   294.90866      0.012897222    7.6799924      731.67651     -55.05005       676.62646    
    273000   305.0307       0.012897222    6.8049311      756.78956     -50.990196      705.79937    
    274000   301.91095      0.012897222    5.7381167      749.04939     -46.921498      702.12789    
    275000   294.08325      0.012897222    6.4804019      729.62865     -49.096141      680.53251    
    276000   304.14986      0.012897222    6.3272949      754.60419     -52.012195      702.59199    
    277000   301.6035       0.012897222    7.5310753      748.28661     -56.629786      691.65682    
    278000   285.20371      0.012897222    6.2012355      707.59825     -52.587469      655.01079    
    279000   303.77027      0.012897222    8.0416763      753.66242     -57.608819      696.0536     
    280000   310.6981       0.012897222    7.7418645      770.85056     -57.563218      713.28734    
    281000   289.89417      0.012897222    4.7420753      719.23543     -52.338813      666.89662    
    282000   291.01083      0.012897222    5.5717767      722.00589     -45.585518      676.42037    
    283000   302.12934      0.012897222    6.3993809      749.59122     -52.489109      697.10212    
    284000   306.64803      0.012897222    7.7680859      760.80222     -50.258204      710.54402    
    285000   300.34619      0.012897222    5.757039       745.16719     -47.812806      697.35438    
    286000   292.10635      0.012897222    6.2848721      724.72391     -52.070996      672.65292    
    287000   306.37581      0.012897222    6.8906371      760.12684     -56.079854      704.04698    
    288000   299.5008       0.012897222    7.5805922      743.06974     -55.855588      687.21415    
    289000   295.78982      0.012897222    6.2050672      733.8627      -50.500771      683.36193    
    290000   294.65901      0.012897222    7.1640119      731.05713     -47.638185      683.41895    
    291000   307.15409      0.012897222    6.6525183      762.05775     -50.011261      712.04649    
    292000   313.81636      0.012897222    7.0865903      778.58704     -51.886715      726.70032    
    293000   293.87757      0.012897222    2.4534297      729.11836     -54.648069      674.4703     
    294000   294.53413      0.012897222    5.954796       730.74729     -55.066714      675.68058    
    295000   303.66993      0.012897222   -0.1603226      753.41346     -55.002075      698.41138    
    296000   309.11128      0.012897222    9.3767786      766.9136      -49.551641      717.36196    
    297000   289.2989       0.012897222    7.6396356      717.75855     -52.00778       665.75077    
    298000   296.82745      0.012897222    6.3096854      736.43708     -52.110815      684.32627    
    299000   322.13203      0.012897222    9.4296798      799.21844     -49.197796      750.02064    
    300000   301.63455      0.012897222    7.542998       748.36363     -53.007152      695.35648    
    301000   301.12225      0.012897222    7.2642405      747.0926      -48.027425      699.06517    
    302000   299.90421      0.012897222    5.5496777      744.07062     -47.701269      696.36935    
    303000   301.31078      0.012897222    9.1799536      747.56034     -50.408627      697.15172    
    304000   308.34186      0.012897222    2.1535417      765.00464     -55.637644      709.367      
    305000   315.70875      0.012897222    6.9949509      783.2821      -54.320941      728.96116    
    306000   303.9558       0.012897222    9.5690426      754.12272     -58.262576      695.86014    
    307000   290.82766      0.012897222    5.6272833      721.55145     -55.715866      665.83558    
    308000   306.08535      0.012897222    7.2375142      759.4062      -49.990379      709.41582    
    309000   308.73975      0.012897222    6.8613777      765.99182     -46.835746      719.15608    
    310000   303.47604      0.012897222    7.7586505      752.93241     -52.079403      700.85301    
    311000   286.94275      0.012897222    5.6116702      711.91288     -54.654683      657.2582     
    312000   295.85843      0.012897222    4.0617391      734.03293     -58.778105      675.25482    
    313000   307.83311      0.012897222    6.9809032      763.74244     -55.839306      707.90313    
    314000   295.19555      0.012897222    6.8268099      732.3883      -50.222958      682.16534    
    315000   286.48567      0.012897222    7.2421526      710.77885     -54.455023      656.32383    
    316000   294.88114      0.012897222    6.9362444      731.60825     -54.325741      677.2825     
    317000   303.30601      0.012897222    5.8285133      752.51056     -52.029036      700.48153    
    318000   301.7972       0.012897222    5.1328577      748.76717     -43.187904      705.57927    
    319000   290.76411      0.012897222    5.9139305      721.39378     -49.609171      671.78461    
    320000   287.36457      0.012897222    6.5990321      712.95941     -46.621164      666.33825    
    321000   306.82214      0.012897222    6.1033652      761.23419     -44.804716      716.42947    
    322000   310.88328      0.012897222    7.2215986      771.30998     -43.172677      728.13731    
    323000   297.87896      0.012897222    7.3307735      739.04592     -42.375442      696.67047    
    324000   298.15418      0.012897222    6.7127636      739.72873     -42.53676       697.19197    
    325000   302.00615      0.012897222    5.8381669      749.28559     -45.602021      703.68356    
    326000   294.83427      0.012897222    4.986855       731.49194     -47.857658      683.63428    
    327000   289.36688      0.012897222    1.5826366      717.92721     -47.000166      670.92704    
    328000   294.48315      0.012897222    8.7297382      730.62081     -46.052892      684.56792    
    329000   304.40877      0.012897222    9.8934928      755.24656     -48.271974      706.97458    
    330000   299.40196      0.012897222    7.329113       742.82452     -47.316556      695.50797    
    331000   298.94983      0.012897222    5.383197       741.70278     -45.341228      696.36155    
    332000   294.38828      0.012897222    8.1720491      730.38544     -45.458746      684.92669    
    333000   312.31743      0.012897222    8.8055373      774.86815     -44.983417      729.88473    
    334000   294.48305      0.012897222    4.0616017      730.62056     -47.731782      682.88878    
    335000   295.95408      0.012897222   -0.4310706      734.27022     -46.589715      687.6805     
    336000   294.1137       0.012897222    10.506731      729.7042      -45.367934      684.33627    
    337000   306.81817      0.012897222    7.7464782      761.22435     -46.91512       714.30923    
    338000   303.68514      0.012897222    7.2156492      753.4512      -41.179859      712.27134    
    339000   288.35653      0.012897222    2.3988828      715.42051     -42.81145       672.60906    
    340000   291.3951       0.012897222    15.592264      722.95928     -43.263786      679.69549    
    341000   305.99809      0.012897222    12.646126      759.18969     -44.567949      714.62174    
    342000   307.95248      0.012897222   -4.0823284      764.0386      -45.435285      718.60331    
    343000   293.80459      0.012897222    5.5260804      728.93728     -43.41999       685.51729    
    344000   287.8517       0.012897222    9.8073325      714.168       -44.935082      669.23292    
    345000   303.36585      0.012897222    5.8681249      752.65905     -42.673567      709.98548    
    346000   301.99322      0.012897222    6.0602637      749.25351     -44.058226      705.19529    
    347000   304.86229      0.012897222    12.26613       756.37174     -38.829498      717.54225    
    348000   293.1929       0.012897222    10.727376      727.41966     -42.418467      685.00119    
    349000   307.35219      0.012897222    3.1187252      762.54926     -42.918141      719.63112    
    350000   302.57583      0.012897222    1.2018146      750.69898     -42.147402      708.55158    
    351000   297.76368      0.012897222    7.2612846      738.75989     -43.969348      694.79055    
    352000   302.36765      0.012897222    15.170143      750.18247     -42.945238      707.23723    
    353000   313.10463      0.012897222    5.1101799      776.82122     -41.300238      735.52098    
    354000   295.88475      0.012897222    1.0522592      734.09821     -44.230519      689.86769    
    355000   299.47733      0.012897222    9.7950487      743.01151     -37.272179      705.73934    
    356000   295.74803      0.012897222    9.3334072      733.75902     -38.446975      695.31205    
    357000   303.36429      0.012897222    15.267533      752.65517     -35.298324      717.35685    
    358000   314.38788      0.012897222    1.9393723      780.00499     -40.007962      739.99702    
    359000   304.19348      0.012897222   -2.2509696      754.7124      -42.686458      712.02595    
    360000   288.36119      0.012897222    9.5421118      715.43205     -38.983227      676.44883    
    361000   290.57313      0.012897222    15.521163      720.91994     -41.40492       679.51502    
    362000   306.65013      0.012897222    6.9978093      760.80742     -44.672434      716.13499    
    363000   300.84473      0.012897222    1.1588673      746.40407     -41.367025      705.03704    
    364000   291.12126      0.012897222    6.5496488      722.27988     -38.33529       683.94459    
    365000   294.55956      0.012897222    14.944683      730.81038     -43.111188      687.69919    
    366000   305.92303      0.012897222    5.4199129      759.00346     -36.391876      722.61158    
    367000   302.69277      0.012897222    4.1219669      750.98911     -34.228929      716.76018    
    368000   290.15041      0.012897222    8.1560161      719.87118     -36.585633      683.28554    
    369000   305.88108      0.012897222    4.4424287      758.89939     -38.934432      719.96496    
    370000   307.15546      0.012897222   -1.4501677      762.06117     -41.744687      720.31649    
    371000   299.27317      0.012897222    8.8170458      742.50498     -43.576153      698.92883    
    372000   302.80043      0.012897222    19.893251      751.25622     -40.341247      710.91497    
    373000   299.71868      0.012897222    2.9617341      743.61031     -41.930339      701.67998    
    374000   299.75701      0.012897222    5.2474558      743.7054      -41.83797       701.86743    
    375000   297.69102      0.012897222    8.3781743      738.57963     -38.384041      700.19559    
    376000   286.77424      0.012897222    8.0853274      711.49478     -39.726239      671.76854    
    377000   299.8316       0.012897222    2.6315267      743.89046     -39.605824      704.28463    
    378000   303.15127      0.012897222    9.4993316      752.12667     -36.006491      716.12018    
    379000   304.03358      0.012897222    7.4271429      754.31568     -35.152799      719.16288    
    380000   306.195        0.012897222    7.9215523      759.67824     -31.516495      728.16174    
    381000   296.19725      0.012897222    3.6760278      734.87353     -32.750884      702.12265    
    382000   303.25581      0.012897222    11.468656      752.38602     -32.23975       720.14627    
    383000   302.50064      0.012897222    8.2380929      750.51243     -33.138473      717.37396    
    384000   309.64819      0.012897222    5.459049       768.2457      -33.577696      734.668      
    385000   304.54075      0.012897222    5.1366288      755.574       -29.863837      725.71016    
    386000   293.14657      0.012897222    5.8237401      727.30473     -31.467499      695.83723    
    387000   297.87537      0.012897222    6.7274822      739.037       -30.996059      708.04094    
    388000   297.56829      0.012897222    4.9334592      738.27513     -36.888032      701.3871     
    389000   314.95537      0.012897222    6.7185647      781.41295     -39.133896      742.27905    
    390000   305.7181       0.012897222    10.016508      758.49503     -40.499197      717.99583    
    391000   292.36253      0.012897222    9.4850833      725.3595      -45.634884      679.72462    
    392000   294.25899      0.012897222   -6.189173       730.06466     -41.170771      688.89389    
    393000   301.69554      0.012897222    2.4963852      748.51495     -37.178437      711.33651    
    394000   317.80975      0.012897222    18.370898      788.49475     -38.20112       750.29363    
    395000   286.80695      0.012897222    10.388748      711.57594     -37.429731      674.14621    
    396000   290.73093      0.012897222    4.3654577      721.31146     -41.28649       680.02497    
    397000   295.60759      0.012897222    0.14190331     733.41058     -34.505188      698.90539    
    398000   302.79608      0.012897222   -0.97732532     751.24542     -34.51221       716.73321    
    399000   307.90494      0.012897222    12.813921      763.92063     -33.776936      730.1437     
    400000   301.08736      0.012897222    20.198264      747.00603     -34.237089      712.76894    
    401000   289.37594      0.012897222    12.699124      717.94968     -35.002402      682.94728    
    402000   294.29988      0.012897222    7.5238836      730.1661      -30.637991      699.52811    
    403000   307.75606      0.012897222   -0.35476863     763.55127     -34.097125      729.45414    
    404000   292.64034      0.012897222    24.043982      726.04875     -34.973999      691.07475    
    405000   298.76831      0.012897222    14.410596      741.25241     -35.230309      706.0221     
    406000   302.2489       0.012897222    15.714188      749.88785     -36.675896      713.21195    
    407000   288.82963      0.012897222    2.2358255      716.59427     -35.781666      680.8126     
    408000   302.74269      0.012897222    0.82891765     751.11296     -35.885989      715.22697    
    409000   307.14354      0.012897222    11.141357      762.0316      -31.886692      730.14491    
    410000   296.08267      0.012897222    17.303938      734.58926     -35.020024      699.56923    
    411000   301.92808      0.012897222   -3.0198632      749.09188     -34.510166      714.58172    
    412000   303.0521       0.012897222    16.946319      751.8806      -37.330923      714.54968    
    413000   288.1622       0.012897222    14.654829      714.93837     -38.661516      676.27686    
    414000   300.22592      0.012897222   -2.5083235      744.86878     -33.847862      711.02091    
    415000   310.05319      0.012897222    4.3315541      769.25052     -36.575302      732.67522    
    416000   290.30964      0.012897222    26.832189      720.26621     -31.01934       689.24687    
    417000   286.17863      0.012897222    5.3217409      710.01707     -38.206167      671.8109     
    418000   305.14724      0.012897222    1.8039204      757.07872     -33.697048      723.38167    
    419000   326.23428      0.012897222    8.782819       809.39624     -33.247163      776.14908    
    420000   299.97662      0.012897222    10.923805      744.25027     -30.440491      713.80978    
    421000   290.84082      0.012897222    7.0817519      721.58409     -32.114697      689.46939    
    422000   307.29024      0.012897222    0.50935493     762.39556     -36.192957      726.20261    
    423000   310.04711      0.012897222    11.115544      769.23542     -35.592941      733.64248    
    424000   286.96847      0.012897222    4.8965735      711.97669     -34.650284      677.32641    
    425000   296.66092      0.012897222   -1.9896466      736.02392     -35.913753      700.11016    
    426000   312.22852      0.012897222    5.632756       774.64755     -37.604062      737.04349    
    427000   302.30778      0.012897222    14.428807      750.03394     -39.933839      710.1001     
    428000   287.97838      0.012897222    10.475784      714.4823      -37.577099      676.9052     
    429000   305.26293      0.012897222    4.5167984      757.36573     -37.22094       720.14479    
    430000   298.61786      0.012897222    8.6844975      740.87914     -38.079128      702.80001    
    431000   284.20605      0.012897222    6.0882025      705.12303     -38.304243      666.81879    
    432000   302.63639      0.012897222    4.8504434      750.84922     -37.517085      713.33213    
    433000   300.1165       0.012897222    6.8683217      744.59731     -34.010999      710.58631    
    434000   305.97856      0.012897222    7.2846576      759.14125     -34.281262      724.85999    
    435000   290.39119      0.012897222    7.2118169      720.46854     -32.522781      687.94576    
    436000   287.5189       0.012897222    4.8530307      713.34232     -30.636992      682.70533    
    437000   302.95674      0.012897222    7.6397029      751.64403     -27.431406      724.21262    
    438000   307.82923      0.012897222    6.7877296      763.7328      -30.351415      733.38139    
    439000   295.16014      0.012897222    7.6148455      732.30044     -30.767974      701.53247    
    440000   287.4959       0.012897222    7.1256808      713.28524     -31.093414      682.19183    
    441000   311.44684      0.012897222    1.4893538      772.70819     -32.740322      739.96787    
    442000   306.33071      0.012897222    8.9540159      760.01493     -33.162196      726.85273    
    443000   292.9519       0.012897222    7.9405125      726.82175     -36.112399      690.70935    
    444000   310.16283      0.012897222    2.9134179      769.52254     -38.824849      730.69769    
    445000   312.44308      0.012897222    8.3839357      775.17989     -32.26292       742.91697    
    446000   296.92527      0.012897222    10.175289      736.67977     -34.291301      702.38847    
    447000   294.40037      0.012897222    6.7723427      730.41542     -31.212428      699.203      
    448000   302.5553       0.012897222    4.4354842      750.64803     -30.286681      720.36135    
    449000   317.68706      0.012897222    4.8155794      788.19034     -26.883819      761.30652    
    450000   297.16615      0.012897222    9.784272       737.2774      -31.59846       705.67894    
    451000   286.54711      0.012897222    7.1218364      710.93128     -27.298357      683.63292    
    452000   303.46036      0.012897222    6.6323387      752.89352     -31.361533      721.53198    
    453000   301.29224      0.012897222    12.928335      747.51436     -29.293316      718.22105    
    454000   291.60172      0.012897222    7.1281073      723.4719      -28.543376      694.92852    
    455000   294.8207       0.012897222    6.6713128      731.45828     -28.088139      703.37014    
    456000   305.61386      0.012897222    6.3055484      758.2364      -31.532828      726.70357    
    457000   305.42634      0.012897222    7.693655       757.77116     -29.39127       728.37989    
    458000   291.37523      0.012897222    3.4264185      722.90997     -29.980782      692.92919    
    459000   298.45852      0.012897222    7.2685418      740.48382     -33.718543      706.76528    
    460000   308.75451      0.012897222    8.2126292      766.02846     -27.633655      738.39481    
    461000   287.30175      0.012897222    1.5020622      712.80356     -24.994434      687.80913    
    462000   294.80819      0.012897222    8.9880561      731.42724     -24.305712      707.12153    
    463000   314.61246      0.012897222    9.7091003      780.56219     -22.618468      757.94372    
    464000   295.00009      0.012897222    5.9645588      731.90335     -26.177932      705.72542    
    465000   295.65579      0.012897222   -0.27154831     733.53016     -29.999682      703.53048    
    466000   304.24902      0.012897222    11.393374      754.8502      -26.856185      727.99402    
    467000   313.35513      0.012897222    1.1069176      777.44272     -26.867453      750.57527    
    468000   284.36068      0.012897222    0.014103497    705.50668     -29.476468      676.03021    
    469000   282.14358      0.012897222    7.2751567      700.00601     -31.314616      668.69139    
    470000   299.69856      0.012897222    8.6498581      743.56039     -28.69542       714.86497    
    471000   308.0605       0.012897222    6.9537664      764.3066      -26.310947      737.99565    
    472000   302.55743      0.012897222   -0.44133862     750.65333     -28.838561      721.81477    
    473000   297.23404      0.012897222   -0.64986444     737.44585     -28.694172      708.75167    
    474000   303.15619      0.012897222    13.218267      752.13887     -32.085303      720.05357    
    475000   321.68063      0.012897222    2.5948759      798.09852     -29.769002      768.32952    
    476000   298.14966      0.012897222   -2.5069474      739.71752     -29.5205        710.19702    
    477000   286.44234      0.012897222    2.2465911      710.67135     -25.960141      684.7112     
    478000   294.18016      0.012897222    10.781819      729.8691      -28.537401      701.3317     
    479000   318.42582      0.012897222    7.4150515      790.02325     -28.263008      761.76024    
    480000   302.67468      0.012897222    4.6087605      750.94423     -26.903628      724.0406     
    481000   296.28544      0.012897222    5.0771592      735.09236     -28.879834      706.21252    
    482000   296.0742       0.012897222    13.134923      734.56825     -27.527383      707.04086    
    483000   310.43118      0.012897222    10.501499      770.18832     -25.846817      744.3415     
    484000   306.1957       0.012897222   -1.4162704      759.67997     -30.974103      728.70586    
    485000   307.1919       0.012897222    3.6192631      762.15158     -29.017759      733.13382    
    486000   290.6738       0.012897222    5.2726653      721.16971     -28.965941      692.20377    
    487000   294.67248      0.012897222    7.7129509      731.09054     -30.790996      700.29954    
    488000   302.33367      0.012897222    7.8575617      750.09817     -29.247944      720.85022    
    489000   311.74452      0.012897222    5.8630726      773.44675     -29.038842      744.40791    
    490000   280.43044      0.012897222    5.1341847      695.75566     -28.786864      666.9688     
    491000   288.57958      0.012897222    5.211205       715.9739      -28.823215      687.15068    
    492000   297.10954      0.012897222    8.2104454      737.13696     -27.647265      709.4897     
    493000   308.4509       0.012897222    6.7431712      765.27518     -24.738469      740.53671    
    494000   299.69507      0.012897222    4.6096987      743.55174     -27.158463      716.39327    
    495000   285.15413      0.012897222    4.255442       707.47525     -27.764029      679.71122    
    496000   297.83762      0.012897222    15.615638      738.94335     -28.7433        710.20005    
    497000   308.27518      0.012897222    5.9759821      764.83922     -30.070036      734.76919    
    498000   304.64982      0.012897222    4.0786486      755.84461     -27.257305      728.58731    
    499000   296.30717      0.012897222    6.2976539      735.14625     -33.551399      701.59485    
    500000   286.67034      0.012897222    7.1170534      711.23702     -29.825581      681.41144    
    501000   308.99668      0.012897222    8.4884489      766.62928     -27.498701      739.13058    
    502000   315.20407      0.012897222    6.9973381      782.02998     -28.354388      753.67559    
    503000   303.68545      0.012897222    5.5435328      753.45198     -25.76038       727.6916     
    504000   284.02707      0.012897222    5.1844053      704.679       -25.354017      679.32498    
    505000   301.02781      0.012897222    7.1297793      746.8583      -25.654394      721.20391    
    506000   299.21205      0.012897222    7.7457175      742.35334     -28.976967      713.37637    
    507000   304.07088      0.012897222    7.7617224      754.40824     -24.705839      729.7024     
    508000   298.09209      0.012897222    6.8243528      739.57469     -27.06708       712.50761    
    509000   301.81079      0.012897222    7.3632679      748.80089     -31.404617      717.39627    
    510000   296.48474      0.012897222    9.7469523      735.58682     -28.41111       707.17571    
    511000   299.64898      0.012897222    6.4564623      743.43737     -26.125709      717.31166    
    512000   300.68875      0.012897222    4.8217323      746.01708     -28.766365      717.25071    
    513000   306.85603      0.012897222    8.6602689      761.31826     -27.447601      733.87066    
    514000   304.6402       0.012897222    8.365274       755.82074     -31.248614      724.57212    
    515000   300.29438      0.012897222    5.4835509      745.03863     -34.288703      710.74992    
    516000   291.57386      0.012897222    7.6802839      723.40278     -30.51088       692.8919     
    517000   306.62535      0.012897222    13.187526      760.74596     -31.665454      729.0805     
    518000   308.09058      0.012897222    10.961031      764.38121     -27.970497      736.41072    
    519000   292.8035       0.012897222    6.4733632      726.45355     -31.178167      695.27539    
    520000   302.18001      0.012897222    6.7426896      749.71693     -28.074278      721.64265    
    521000   299.90184      0.012897222    5.7445932      744.06474     -28.115135      715.9496     
    522000   301.83403      0.012897222    7.3106395      748.85856     -25.438688      723.41987    
    523000   304.58015      0.012897222    7.4584935      755.67174     -23.302241      732.3695     
    524000   294.4557       0.012897222    8.278671       730.5527      -25.171626      705.38107    
    525000   306.62061      0.012897222    8.8554661      760.73418     -22.068914      738.66526    
    526000   303.2943       0.012897222    7.9877209      752.48152     -25.476174      727.00535    
    527000   284.77828      0.012897222    6.3569239      706.54277     -24.47932       682.06345    
    528000   301.74834      0.012897222    7.1034252      748.64595     -27.186681      721.45927    
    529000   298.65931      0.012897222    9.5232332      740.98198     -25.66984       715.31214    
    530000   292.40886      0.012897222    7.149227       725.47444     -29.653784      695.82065    
    531000   315.10253      0.012897222    7.4284365      781.77807     -29.530091      752.24798    
    532000   311.05271      0.012897222    6.4579488      771.73035     -29.179432      742.55092    
    533000   296.74608      0.012897222    2.0840483      736.2352      -29.926252      706.30895    
    534000   298.2055       0.012897222    2.1627094      739.85607     -27.14596       712.71011    
    535000   307.28921      0.012897222    5.5541317      762.39299     -22.836016      739.55698    
    536000   291.78546      0.012897222    7.2483542      723.92778     -23.19522       700.73256    
    537000   302.89124      0.012897222    11.348941      751.4815      -24.441894      727.03961    
    538000   306.53906      0.012897222    8.1676787      760.53187     -24.609884      735.92198    
    539000   322.8492       0.012897222    7.9779612      800.99776     -28.380239      772.61752    
    540000   298.10908      0.012897222    7.1938181      739.61684     -26.336924      713.27992    
    541000   288.39934      0.012897222    6.8567165      715.52672     -26.425377      689.10134    
    542000   303.14371      0.012897222    6.432397       752.10791     -24.74487       727.36304    
    543000   313.41866      0.012897222    5.2481866      777.60033     -25.412456      752.18787    
    544000   297.44941      0.012897222    5.7941641      737.98018     -25.283145      712.69703    
    545000   285.28536      0.012897222    7.3862012      707.80084     -27.742544      680.05829    
    546000   312.16537      0.012897222    9.6301587      774.49089     -33.722824      740.76807    
    547000   303.20067      0.012897222    6.4515164      752.24923     -31.572632      720.6766     
    548000   297.63254      0.012897222    3.5288242      738.43454     -23.827211      714.60732    
    549000   296.78034      0.012897222    5.5099291      736.3202      -28.607614      707.71259    
    550000   288.73185      0.012897222    8.6700884      716.35167     -28.97309       687.37858    
    551000   293.15411      0.012897222    10.314498      727.32343     -28.778857      698.54457    
    552000   315.38579      0.012897222    8.2703731      782.48083     -24.316258      758.16457    
    553000   301.6808       0.012897222    6.9727914      748.47839     -24.52699       723.9514     
    554000   293.94499      0.012897222    3.4284655      729.28563     -22.319939      706.96569    
    555000   296.46788      0.012897222    9.9127208      735.54499     -22.940225      712.60477    
    556000   317.8135       0.012897222    10.449189      788.50405     -19.842397      768.66166    
    557000   300.11559      0.012897222    6.2067814      744.59505     -24.16665       720.4284     
    558000   291.44795      0.012897222    7.9462233      723.09039     -24.318435      698.77195    
    559000   304.33228      0.012897222    7.1331792      755.05678     -25.398122      729.65866    
    560000   316.23231      0.012897222    7.6369915      784.58108     -21.882936      762.69814    
    561000   301.17925      0.012897222    6.0314081      747.23402     -29.346157      717.88786    
    562000   289.04366      0.012897222    5.9240036      717.12528     -30.134246      686.99103    
    563000   300.42884      0.012897222    6.8541759      745.37223     -30.688228      714.684      
    564000   303.43505      0.012897222    6.4139247      752.83071     -24.5884        728.24231    
    565000   294.69408      0.012897222    11.79828       731.14412     -23.533464      707.61066    
    566000   296.37649      0.012897222    7.9315248      735.31824     -25.905047      709.4132     
    567000   314.27015      0.012897222    5.5734441      779.7129      -22.61576       757.09714    
    568000   295.06385      0.012897222    4.6931047      732.06154     -21.08065       710.98089    
    569000   295.28216      0.012897222    11.396579      732.60319     -22.361423      710.24176    
    570000   317.0247       0.012897222    8.7413546      786.54702     -20.328925      766.21809    
    571000   301.96856      0.012897222    5.9317274      749.19231     -19.293059      729.89925    
    572000   283.82217      0.012897222    8.9282103      704.17063     -17.503675      686.66696    
    573000   298.50744      0.012897222    6.1935731      740.60519     -20.176522      720.42867    
    574000   315.20818      0.012897222    7.798013       782.04017     -22.33268       759.70749    
    575000   296.15839      0.012897222    8.4441803      734.77713     -20.412944      714.36419    
    576000   298.19321      0.012897222    6.981208       739.82559     -17.258028      722.56756    
    577000   304.59262      0.012897222    8.3414851      755.70268     -18.950408      736.75228    
    578000   285.79806      0.012897222    6.4237566      709.07286     -17.784731      691.28813    
    579000   301.93219      0.012897222    6.6280038      749.10209     -21.332565      727.76953    
    580000   314.19989      0.012897222    8.0833619      779.53859     -19.819397      759.71919    
    581000   294.56269      0.012897222    6.5665125      730.81815     -22.762681      708.05547    
    582000   300.73457      0.012897222    5.8223357      746.13075     -16.756549      729.3742     
    583000   304.6191       0.012897222    6.8338335      755.76839     -18.280508      737.48788    
    584000   304.5706       0.012897222    12.748136      755.64806     -15.85148       739.79658    
    585000   306.37993      0.012897222    6.1563118      760.13706     -20.074332      740.06273    
    586000   308.44574      0.012897222    7.0699061      765.26238     -19.792588      745.46979    
    587000   295.04866      0.012897222    9.5058074      732.02387     -20.595284      711.42859    
    588000   289.04349      0.012897222    5.7879891      717.12487     -22.747205      694.37767    
    589000   310.97591      0.012897222    7.3347469      771.53981     -21.541047      749.99876    
    590000   309.16756      0.012897222    10.437436      767.05324     -20.092538      746.9607     
    591000   300.66708      0.012897222    5.5201935      745.96331     -18.67377       727.28954    
    592000   297.52503      0.012897222    6.8357693      738.1678      -18.824747      719.34305    
    593000   302.49047      0.012897222    6.9732957      750.48719     -19.919213      730.56797    
    594000   307.74697      0.012897222    7.0531407      763.5287      -20.136717      743.39199    
    595000   300.98424      0.012897222    7.1613885      746.75019     -23.457835      723.29236    
    596000   299.92538      0.012897222    6.9840714      744.12314     -25.836875      718.28627    
    597000   290.68522      0.012897222    7.3655555      721.19805     -20.922108      700.27595    
    598000   301.49854      0.012897222    7.8760684      748.02618     -20.175741      727.85044    
    599000   305.49896      0.012897222    7.3669638      757.95133     -23.48285       734.46848    
    600000   290.56976      0.012897222    5.6074583      720.91159     -24.371126      696.54046    
    601000   305.76653      0.012897222    7.7136988      758.61518     -20.740345      737.87484    
    602000   326.02464      0.012897222    7.7147566      808.87611     -19.647483      789.22862    
    603000   314.6959       0.012897222    7.0558216      780.76921     -20.579731      760.18948    
    604000   293.68422      0.012897222    6.6963966      728.63865     -21.078384      707.56026    
    605000   295.07052      0.012897222    5.7144361      732.07808     -24.352062      707.72602    
    606000   313.69892      0.012897222    6.8982726      778.29566     -22.359531      755.93613    
    607000   287.21716      0.012897222    7.8645242      712.59368     -20.321569      692.27211    
    608000   299.08152      0.012897222    5.8768047      742.0295      -22.793888      719.23561    
    609000   306.00405      0.012897222    7.2328439      759.20447     -22.392416      736.81206    
    610000   306.7778       0.012897222    7.9718506      761.12418     -21.121403      740.00277    
    611000   289.83911      0.012897222    6.7385965      719.09882     -20.488626      698.6102     
    612000   295.38767      0.012897222    1.4695672      732.86495     -24.927525      707.93743    
    613000   302.5388       0.012897222    9.709958       750.60711     -25.573123      725.03398    
    614000   287.37235      0.012897222    2.4551678      712.97873     -23.111907      689.86682    
    615000   290.22972      0.012897222    8.4038041      720.06794     -22.436979      697.63096    
    616000   294.37971      0.012897222    5.0404947      730.36416     -21.752657      708.61151    
    617000   313.31246      0.012897222    7.0419997      777.33685     -24.273128      753.06373    
    618000   316.72964      0.012897222    8.5017785      785.81498     -24.666071      761.1489     
    619000   291.34185      0.012897222    6.0661637      722.82716     -21.254658      701.57251    
    620000   301.21331      0.012897222    4.4221316      747.31853     -23.920025      723.3985     
    621000   299.3641       0.012897222    7.7208225      742.73058     -22.136142      720.59444    
    622000   292.5246       0.012897222    7.3579609      725.7616      -21.977363      703.78424    
    623000   302.18265      0.012897222    6.5483454      749.72348     -25.007739      724.71574    
    624000   303.1319       0.012897222    7.642608       752.07859     -23.518431      728.56016    
    625000   300.72628      0.012897222    7.3864102      746.11019     -22.644512      723.46568    
    626000   300.57101      0.012897222    6.6300628      745.72497     -23.662534      722.06244    
    627000   298.2145       0.012897222    7.0897         739.87839     -23.910607      715.96779    
    628000   304.37507      0.012897222    11.593252      755.16293     -22.080819      733.08211    
    629000   294.72722      0.012897222    7.8509088      731.22634     -19.602254      711.62409    
    630000   299.60662      0.012897222    6.9489377      743.33228     -17.788075      725.5442     
    631000   301.2875       0.012897222    7.8645631      747.50259     -14.603549      732.89904    
    632000   298.56545      0.012897222    6.2218536      740.74912     -17.825649      722.92347    
    633000   295.04591      0.012897222    5.4915528      732.01703     -19.664794      712.35224    
    634000   296.16332      0.012897222    5.8658379      734.78936     -18.46737       716.32199    
    635000   299.02406      0.012897222    7.7404215      741.88694     -18.277096      723.60984    
    636000   302.77622      0.012897222    8.3757147      751.19615     -19.646525      731.54963    
    637000   310.4241       0.012897222    7.0580686      770.17075     -20.254564      749.91618    
    638000   302.98058      0.012897222    4.9446492      751.70317     -20.749075      730.95409    
    639000   287.87998      0.012897222    5.6590158      714.23817     -22.040298      692.19787    
    640000   296.97232      0.012897222    7.3266758      736.79652     -21.916233      714.88028    
    641000   308.4069       0.012897222    7.064084       765.16601     -20.825252      744.34076    
    642000   304.40272      0.012897222    6.3864875      755.23155     -19.760199      735.47135    
    643000   291.66669      0.012897222    6.7049896      723.6331      -21.560418      702.07268    
    644000   291.54356      0.012897222    4.8848291      723.32761     -20.426541      702.90107    
    645000   309.4821       0.012897222    7.3673026      767.83361     -21.179247      746.65436    
    646000   304.03316      0.012897222    6.9360994      754.31465     -22.46076       731.85389    
    647000   296.78824      0.012897222    6.8232835      736.33981     -23.286317      713.0535     
    648000   293.82061      0.012897222    6.603573       728.97702     -27.063206      701.91382    
    649000   306.99383      0.012897222    7.2992196      761.66016     -21.981163      739.679      
    650000   314.34952      0.012897222    6.8900808      779.90983     -23.642531      756.2673     
    651000   311.96311      0.012897222    5.957736       773.98907     -22.996389      750.99268    
    652000   282.67104      0.012897222    5.5766264      701.31465     -24.68003       676.63462    
    653000   302.12454      0.012897222    9.9331593      749.57932     -22.290598      727.28872    
    654000   321.34905      0.012897222    7.7378201      797.27586     -23.936652      773.3392     
    655000   305.02645      0.012897222    8.7407675      756.77903     -19.76567       737.01336    
    656000   290.49164      0.012897222    6.7419958      720.71777     -21.335238      699.38253    
    657000   301.97226      0.012897222    4.6615739      749.20149     -26.617019      722.58447    
    658000   314.18379      0.012897222    8.0372847      779.49865     -24.741945      754.75671    
    659000   293.54768      0.012897222    9.8564462      728.29988     -22.479425      705.82045    
    660000   285.76355      0.012897222    1.8583485      708.98724     -23.34964       685.6376     
    661000   303.91374      0.012897222    4.9677222      754.01837     -24.783771      729.2346     
    662000   311.88247      0.012897222    7.1476687      773.789       -24.739208      749.0498     
    663000   302.99483      0.012897222    12.606738      751.73851     -21.836148      729.90236    
    664000   294.85975      0.012897222    7.1151897      731.55517     -30.775927      700.77924    
    665000   297.10628      0.012897222    6.4235655      737.12887     -27.960774      709.16809    
    666000   300.73617      0.012897222    4.4777628      746.13473     -27.206149      718.92859    
    667000   306.54635      0.012897222    6.2307949      760.54995     -29.474896      731.07505    
    668000   293.5618       0.012897222    9.4507828      728.33491     -25.609725      702.72518    
    669000   299.38031      0.012897222    5.9799344      742.77079     -23.448991      719.3218     
    670000   305.78865      0.012897222    4.961892       758.67007     -25.164256      733.50581    
    671000   306.77528      0.012897222    12.41552       761.11794     -27.238769      733.87917    
    672000   289.1693       0.012897222    10.133435      717.43702     -24.133033      693.30398    
    673000   307.34238      0.012897222    6.9033161      762.52491     -22.392628      740.13229    
    674000   305.51529      0.012897222    6.9124508      757.99184     -24.22333       733.76851    
    675000   300.27825      0.012897222    7.5569161      744.99862     -17.624338      727.37428    
    676000   303.22021      0.012897222    5.814023       752.2977      -20.669902      731.62779    
    677000   296.37301      0.012897222    6.5182274      735.30961     -19.650649      715.65896    
    678000   312.43999      0.012897222    9.9134749      775.17223     -20.564893      754.60734    
    679000   295.71134      0.012897222    5.4515198      733.66799     -21.202887      712.4651     
    680000   296.97202      0.012897222    5.4805685      736.79577     -21.664543      715.13123    
    681000   291.52254      0.012897222    10.590282      723.27545     -23.697603      699.57785    
    682000   319.21869      0.012897222    9.4196541      791.99036     -24.336526      767.65383    
    683000   303.0994       0.012897222    7.9288786      751.99797     -26.111644      725.88633    
    684000   292.267        0.012897222   -5.8224221      725.12248     -24.625285      700.4972     
    685000   293.97366      0.012897222    10.061316      729.35675     -24.849985      704.50677    
    686000   299.71589      0.012897222    13.188241      743.60339     -24.170251      719.43314    
    687000   308.17197      0.012897222    7.670258       764.58314     -20.764874      743.81827    
    688000   299.24966      0.012897222   -1.9967879      742.44665     -25.375298      717.07135    
    689000   279.76158      0.012897222    0.67264298     694.09619     -31.208221      662.88797    
    690000   301.64258      0.012897222    9.1834155      748.38355     -22.905844      725.4777     
    691000   310.47971      0.012897222    7.2612895      770.30872     -26.083225      744.2255     
    692000   295.42386      0.012897222    6.6783364      732.95474     -23.810786      709.14395    
    693000   289.64358      0.012897222    6.6654368      718.6137      -20.587994      698.02571    
    694000   302.88441      0.012897222    8.0702217      751.46456     -21.658583      729.80598    
    695000   309.92553      0.012897222    7.9618587      768.93379     -18.806599      750.12719    
    696000   299.02747      0.012897222    6.1517094      741.89539     -20.372828      721.52256    
    697000   292.76607      0.012897222    4.8861142      726.36069     -18.375549      707.98514    
    698000   310.2761       0.012897222    8.0317282      769.80355     -19.972008      749.83155    
    699000   315.25061      0.012897222    7.1158154      782.14546     -20.817172      761.32828    
    700000   300.63509      0.012897222    5.09662        745.88394     -22.595509      723.28843    
    701000   303.16207      0.012897222    5.6329547      752.15345     -22.334747      729.8187     
    702000   289.98138      0.012897222    10.950156      719.4518      -22.911617      696.54018    
    703000   306.56964      0.012897222    8.2573225      760.60774     -19.116055      741.49169    
    704000   294.18443      0.012897222    5.9941867      729.87967     -15.560848      714.31882    
    705000   291.49928      0.012897222    4.670371       723.21775     -19.878896      703.33885    
    706000   294.35155      0.012897222    6.2711565      730.2943      -17.518836      712.77547    
    707000   305.84054      0.012897222    10.023673      758.7988      -13.592263      745.20654    
    708000   304.87318      0.012897222    11.754483      756.39876     -17.222093      739.17666    
    709000   304.45699      0.012897222    3.071473       755.36619     -12.900364      742.46583    
    710000   302.15016      0.012897222    8.5318651      749.64287     -13.384001      736.25887    
    711000   285.34631      0.012897222    15.023747      707.95207     -11.235841      696.71623    
    712000   302.95392      0.012897222    7.3538109      751.63702     -15.722913      735.91411    
    713000   301.86105      0.012897222    5.3352934      748.92558     -18.574456      730.35112    
    714000   299.76132      0.012897222    4.3408654      743.7161      -19.044127      724.67197    
    715000   291.85558      0.012897222    6.2191148      724.10174     -17.886855      706.21488    
    716000   296.30442      0.012897222    9.2359004      735.13944     -16.442655      718.69679    
    717000   309.91128      0.012897222    8.3425527      768.89843     -18.309459      750.58897    
    718000   306.72147      0.012897222    5.7491453      760.98442     -17.194915      743.7895     
    719000   283.6996       0.012897222    6.6204184      703.86652     -19.040351      684.82617    
    720000   297.19909      0.012897222    7.1601977      737.35913     -17.874982      719.48415    
    721000   298.59122      0.012897222    7.1134104      740.81304     -19.368031      721.44501    
    722000   310.86739      0.012897222    6.5193968      771.27056     -18.969279      752.30128    
    723000   299.19172      0.012897222    8.4415807      742.30291     -18.7528        723.55011    
    724000   290.12973      0.012897222    5.2464732      719.81987     -20.907558      698.91231    
[...]
   3823000   301.8379       0.012897222    11.032107      748.86815     -20.963109      727.90504    
   3824000   313.98962      0.012897222    10.744376      779.01691     -20.898351      758.11856    
   3825000   299.04783      0.012897222    7.7582733      741.94592     -19.404035      722.54188    
   3826000   288.76858      0.012897222    3.7628771      716.44281     -22.88403       693.55878    
   3827000   286.51886      0.012897222    8.1659633      710.86119     -22.921706      687.93948    
   3828000   293.01468      0.012897222    6.5065604      726.9775      -21.671011      705.30649    
   3829000   315.93489      0.012897222    10.529458      783.84316     -24.428628      759.41454    
   3830000   300.60129      0.012897222    8.672453       745.80009     -21.806347      723.99375    
   3831000   287.36713      0.012897222    1.8590455      712.96578     -19.54639       693.41939    
   3832000   306.01969      0.012897222    5.2397517      759.24329     -21.492321      737.75097    
   3833000   303.72087      0.012897222    11.141324      753.53986     -20.59928       732.94058    
   3834000   294.13314      0.012897222    8.1542394      729.75244     -17.681771      712.07067    
   3835000   296.05056      0.012897222   -1.0879735      734.50959     -21.015495      713.4941     
   3836000   308.17877      0.012897222    5.0083367      764.60001     -19.831496      744.76852    
   3837000   306.95812      0.012897222    13.134281      761.57155     -19.111538      742.46001    
   3838000   294.56402      0.012897222    8.1062337      730.82145     -19.819544      711.00191    
   3839000   296.80054      0.012897222    4.7147333      736.37032     -21.292507      715.07781    
   3840000   304.40678      0.012897222    7.9102752      755.24162     -21.734768      733.50686    
   3841000   304.23695      0.012897222    7.2156598      754.82025     -19.311046      735.50921    
   3842000   303.94556      0.012897222    3.7591313      754.09731     -23.212434      730.88488    
   3843000   307.99735      0.012897222    10.27812       764.14993     -21.578181      742.57175    
   3844000   295.81476      0.012897222    8.147636       733.92456     -21.578638      712.34593    
   3845000   294.41596      0.012897222    7.1469627      730.4541      -20.906822      709.54728    
   3846000   304.49534      0.012897222    6.7140543      755.46134     -20.342338      735.119      
   3847000   302.47985      0.012897222    6.7920109      750.46083     -23.562395      726.89844    
   3848000   303.71458      0.012897222    6.6948921      753.52424     -20.03719       733.48705    
   3849000   294.2494       0.012897222    5.9609092      730.04088     -18.680442      711.36044    
   3850000   300.80443      0.012897222    6.6794984      746.30407     -15.968697      730.33537    
   3851000   302.49209      0.012897222    5.7854778      750.49121     -19.111334      731.37988    
   3852000   310.22093      0.012897222    6.5790342      769.66667     -17.072315      752.59436    
   3853000   297.79752      0.012897222    7.4746682      738.84387     -13.20402       725.63985    
   3854000   295.17353      0.012897222    6.3037912      732.33366     -14.032095      718.30156    
   3855000   316.3773       0.012897222    7.598137       784.9408      -14.058387      770.88241    
   3856000   302.98742      0.012897222    5.6947445      751.72015     -18.692393      733.02776    
   3857000   290.26441      0.012897222    6.5434396      720.15401     -18.480841      701.67317    
   3858000   289.77054      0.012897222    7.1167235      718.9287      -17.814535      701.11416    
   3859000   309.0729       0.012897222    6.8755009      766.81839     -19.491629      747.32676    
   3860000   306.29709      0.012897222    7.1550305      759.93153     -16.750954      743.18057    
   3861000   286.70063      0.012897222    5.1324207      711.31217     -18.799695      692.51247    
   3862000   300.14503      0.012897222    6.985797       744.66809     -18.770767      725.89733    
   3863000   312.99327      0.012897222    7.2028555      776.54494     -21.740771      754.80417    
   3864000   303.80962      0.012897222    7.8538276      753.76004     -24.966763      728.79327    
   3865000   290.10226      0.012897222    6.8266362      719.7517      -26.404045      693.34765    
   3866000   313.55813      0.012897222    6.4342538      777.94636     -24.29397       753.65239    
   3867000   305.29976      0.012897222    4.8461978      757.45712     -22.908906      734.54822    
   3868000   293.93355      0.012897222    8.1096297      729.25725     -23.610537      705.64671    
   3869000   295.22071      0.012897222    6.362521       732.45071     -19.803807      712.64691    
   3870000   299.12252      0.012897222    8.475131       742.13122     -21.055179      721.07604    
   3871000   305.69589      0.012897222    7.6977381      758.43994     -23.340453      735.09948    
   3872000   306.02087      0.012897222    6.4891736      759.24621     -23.083733      736.16247    
   3873000   314.31318      0.012897222    7.3063086      779.81967     -24.132101      755.68757    
   3874000   309.02827      0.012897222    7.353638       766.70765     -19.261873      747.44578    
   3875000   290.38166      0.012897222    7.0934987      720.44489     -15.40386       705.04103    
   3876000   301.89768      0.012897222    11.554511      749.01646     -22.206238      726.81022    
   3877000   297.21985      0.012897222    13.181147      737.41064     -20.867884      716.54276    
   3878000   301.99981      0.012897222    6.6618921      749.26986     -22.32271       726.94715    
   3879000   285.95767      0.012897222    6.5497385      709.46885     -20.098131      689.37072    
   3880000   300.84986      0.012897222    5.8387874      746.4168      -17.333445      729.08336    
   3881000   320.98247      0.012897222    8.8430629      796.36635     -15.736852      780.6295     
   3882000   302.56965      0.012897222    10.162719      750.68365     -17.911103      732.77254    
   3883000   284.40141      0.012897222    2.9525062      705.60774     -17.574373      688.03337    
   3884000   303.95124      0.012897222    7.2308625      754.11141     -21.110996      733.00041    
   3885000   298.44856      0.012897222    8.0166435      740.4591      -21.461274      718.99783    
   3886000   300.71272      0.012897222    5.4368166      746.07654     -18.009636      728.0669     
   3887000   296.5918       0.012897222    8.8871208      735.85242     -20.126788      715.72564    
   3888000   290.09886      0.012897222    11.570952      719.74326     -22.874277      696.86899    
   3889000   298.50201      0.012897222    5.3225453      740.59173     -25.18186       715.40987    
   3890000   291.38756      0.012897222    5.5450862      722.94058     -22.428703      700.51188    
   3891000   293.55971      0.012897222    6.2294228      728.32973     -22.277403      706.05233    
   3892000   312.53673      0.012897222    4.2731539      775.41225     -22.574874      752.83738    
   3893000   318.88185      0.012897222    5.9671616      791.15465     -22.217487      768.93716    
   3894000   297.27725      0.012897222    7.9610976      737.55304     -24.390959      713.16208    
   3895000   294.67669      0.012897222    6.382085       731.10098     -20.405905      710.69508    
   3896000   299.61688      0.012897222    4.1973176      743.35775     -21.959884      721.39786    
   3897000   305.40405      0.012897222    3.8980774      757.71587     -21.94527       735.7706     
   3898000   313.58671      0.012897222    7.7875429      778.01726     -23.790497      754.22676    
   3899000   298.18054      0.012897222    7.2068077      739.79415     -25.292168      714.50198    
   3900000   295.29034      0.012897222    7.871148       732.62348     -27.216658      705.40682    
   3901000   300.31493      0.012897222    7.8467506      745.08962     -23.775473      721.31414    
   3902000   313.79464      0.012897222    5.7606819      778.53316     -25.561977      752.97118    
   3903000   306.08636      0.012897222    6.4983875      759.40869     -30.980016      728.42867    
   3904000   295.13433      0.012897222    8.3378017      732.2364      -29.573208      702.66319    
   3905000   297.17333      0.012897222    10.576605      737.29523     -27.76411       709.53113    
   3906000   310.22687      0.012897222    4.6089049      769.68141     -24.062677      745.61873    
   3907000   301.41869      0.012897222    3.9055065      747.82808     -23.375387      724.45269    
   3908000   292.88046      0.012897222    7.3718877      726.6445      -19.456511      707.18799    
   3909000   301.03625      0.012897222    7.4363062      746.87923     -19.877083      727.00215    
   3910000   310.89409      0.012897222    6.6580315      771.3368      -25.160439      746.17636    
   3911000   307.22957      0.012897222    6.8016242      762.24504     -26.874335      735.3707     
   3912000   303.75015      0.012897222    11.932206      753.61251     -26.367472      727.24503    
   3913000   315.41568      0.012897222    8.9366728      782.555       -23.380625      759.17438    
   3914000   300.70947      0.012897222    6.4063517      746.06848     -23.006418      723.06206    
   3915000   300.59564      0.012897222    7.1005625      745.78608     -19.573687      726.21239    
   3916000   294.80561      0.012897222    12.033392      731.42086     -22.515075      708.90578    
   3917000   315.98783      0.012897222    5.9944471      783.97452     -23.895959      760.07856    
   3918000   311.55125      0.012897222    2.7120322      772.96724     -25.734258      747.23298    
   3919000   290.06283      0.012897222    6.4015863      719.65387     -27.815505      691.83837    
   3920000   290.56906      0.012897222    12.530648      720.90986     -28.982127      691.92773    
   3921000   320.28698      0.012897222    8.8917745      794.64082     -29.109469      765.53135    
   3922000   305.41713      0.012897222    5.8149947      757.74831     -23.873906      733.8744     
   3923000   296.07286      0.012897222    7.104301       734.56492     -26.448859      708.11606    
   3924000   311.51909      0.012897222    7.2395097      772.88745     -23.855458      749.03199    
   3925000   288.69747      0.012897222    6.4706204      716.26638     -20.210075      696.05631    
   3926000   299.77416      0.012897222    4.9035241      743.74796     -17.648701      726.09926    
   3927000   297.86891      0.012897222    9.0128761      739.02098     -23.22544       715.79554    
   3928000   307.38771      0.012897222    2.6192617      762.63737     -23.109962      739.52741    
   3929000   308.70908      0.012897222    5.232253       765.91573     -21.906621      744.00911    
   3930000   289.0373       0.012897222    3.4857277      717.10952     -24.681618      692.4279     
   3931000   298.12803      0.012897222    9.5540904      739.66387     -23.130753      716.53311    
   3932000   299.46655      0.012897222    1.1437824      742.98477     -22.09876       720.88601    
   3933000   300.16853      0.012897222    5.22267        744.7264      -23.726815      720.99958    
   3934000   294.81891      0.012897222    0.20874152     731.45383     -28.375728      703.0781     
   3935000   300.25048      0.012897222    10.912508      744.92971     -26.447472      718.48223    
   3936000   307.46902      0.012897222    8.974955       762.83912     -28.007014      734.8321     
   3937000   300.92076      0.012897222    0.44259374     746.5927      -25.938912      720.65379    
   3938000   299.36321      0.012897222    9.0286257      742.72837     -27.268901      715.45947    
   3939000   301.14433      0.012897222    9.0549751      747.14739     -26.187903      720.95949    
   3940000   296.65651      0.012897222    6.9565764      736.01298     -27.571731      708.44124    
   3941000   298.32697      0.012897222    7.1130579      740.15745     -27.491279      712.66617    
   3942000   280.87437      0.012897222    9.3211736      696.85706     -27.362775      669.49429    
   3943000   297.77431      0.012897222    5.8733851      738.78627     -30.472214      708.31405    
   3944000   304.57875      0.012897222    6.891592       755.66828     -32.343222      723.32506    
   3945000   305.23516      0.012897222    9.8568255      757.29685     -32.626648      724.6702     
   3946000   290.49393      0.012897222    7.2060461      720.72344     -28.608977      692.11447    
   3947000   290.63741      0.012897222    4.5534122      721.07943     -28.829608      692.24982    
   3948000   297.87595      0.012897222    4.7877039      739.03845     -28.665602      710.37285    
   3949000   305.93944      0.012897222    5.5950617      759.04418     -33.788861      725.25532    
   3950000   305.22555      0.012897222    7.4708346      757.27301     -31.701923      725.57109    
   3951000   301.50538      0.012897222    6.6934308      748.04316     -29.600686      718.44247    
   3952000   292.72412      0.012897222    6.1519872      726.25662     -33.27022       692.9864     
   3953000   298.03367      0.012897222    6.5767566      739.42975     -29.639944      709.7898     
   3954000   306.07291      0.012897222    7.4370554      759.37533     -27.667265      731.70807    
   3955000   300.90822      0.012897222    7.8049527      746.56159     -25.501366      721.06022    
   3956000   294.98674      0.012897222    5.27587        731.87022     -26.931986      704.93824    
   3957000   303.78992      0.012897222    8.8808016      753.71117     -24.264688      729.44648    
   3958000   319.58565      0.012897222    7.2410031      792.90081     -30.383907      762.5169     
   3959000   301.23134      0.012897222    6.9200532      747.36325     -21.852631      725.51062    
   3960000   292.10148      0.012897222    7.9304769      724.71183     -24.945377      699.76645    
   3961000   308.02242      0.012897222    7.2251171      764.21212     -26.749931      737.46219    
   3962000   298.78981      0.012897222    3.4628198      741.30575     -25.991945      715.31381    
   3963000   300.56036      0.012897222    7.783737       745.69855     -24.132219      721.56633    
   3964000   297.84939      0.012897222    11.182587      738.97255     -25.285678      713.68687    
   3965000   314.25766      0.012897222    6.415591       779.68191     -28.983274      750.69864    
   3966000   305.80542      0.012897222    3.2208919      758.71168     -30.759366      727.95232    
   3967000   290.64535      0.012897222    3.4193475      721.09912     -24.589271      696.50985    
   3968000   305.80708      0.012897222    7.6962223      758.7158      -26.227506      732.48829    
   3969000   302.2584       0.012897222    4.7761462      749.91143     -24.119979      725.79145    
   3970000   284.59696      0.012897222    6.4596824      706.0929      -26.264487      679.82841    
   3971000   302.11036      0.012897222    6.8019557      749.54414     -23.235191      726.30895    
   3972000   310.35986      0.012897222    7.5432607      770.01136     -22.165637      747.84572    
   3973000   293.19031      0.012897222    7.3925202      727.41324     -25.124305      702.28894    
   3974000   294.52737      0.012897222    6.5860454      730.73052     -23.025019      707.7055     
   3975000   314.96491      0.012897222    6.5681799      781.43662     -26.274087      755.16253    
   3976000   317.43575      0.012897222    13.893156      787.56685     -26.418292      761.14855    
   3977000   291.06982      0.012897222    7.7078438      722.15224     -26.715777      695.43646    
   3978000   291.37609      0.012897222    5.9594323      722.91212     -30.941151      691.97097    
   3979000   300.96487      0.012897222    4.1370044      746.70214     -30.585262      716.11688    
   3980000   306.29481      0.012897222    9.9674954      759.92586     -27.713135      732.21273    
   3981000   314.22676      0.012897222    13.477728      779.60525     -28.475752      751.1295     
   3982000   301.0532       0.012897222    7.6343175      746.92128     -24.693252      722.22803    
   3983000   289.11505      0.012897222    6.4798706      717.3024      -23.023156      694.27924    
   3984000   299.42489      0.012897222    6.5079977      742.8814      -22.979584      719.90182    
   3985000   313.2875       0.012897222    7.8882377      777.27491     -26.264929      751.00998    
   3986000   299.32142      0.012897222    6.8287523      742.6247      -29.97601       712.64869    
   3987000   280.13947      0.012897222    6.1223647      695.03375     -28.765147      666.2686     
   3988000   295.28867      0.012897222    7.1103457      732.61932     -26.073074      706.54625    
   3989000   309.86738      0.012897222    7.1239679      768.7895      -23.688596      745.10091    
   3990000   317.21501      0.012897222    4.9730186      787.01919     -22.017825      765.00137    
   3991000   290.26564      0.012897222    5.3662669      720.15706     -22.571034      697.58602    
   3992000   292.73046      0.012897222    9.1764874      726.27235     -25.251793      701.02056    
   3993000   305.50132      0.012897222    7.1546505      757.9572      -21.100664      736.85654    
   3994000   312.71833      0.012897222    7.5957954      775.86281     -19.575113      756.28769    
   3995000   292.16677      0.012897222    6.1869359      724.87382     -21.693645      703.18017    
   3996000   293.91969      0.012897222    5.9663577      729.22285     -19.746689      709.47616    
   3997000   302.42742      0.012897222    6.7231586      750.33078     -20.071747      730.25903    
   3998000   305.72355      0.012897222    6.7650846      758.50857     -18.217702      740.29086    
   3999000   276.67124      0.012897222    7.4881617      686.42898     -20.634503      665.79448    
   4000000   293.44328      0.012897222    7.6110841      728.04086     -19.38062       708.66024    
Loop time of 7751.05 on 1 procs for 4000000 steps with 1500 atoms

Performance: 11.147 ns/day, 2.153 hours/ns, 516.059 timesteps/s, 774.089 katom-step/s
100.0% CPU use with 1 MPI tasks x 1 OpenMP threads

MPI task timing breakdown:
Section |  min time  |  avg time  |  max time  |%varavg| %total
---------------------------------------------------------------
Pair    | 793.21     | 793.21     | 793.21     |   0.0 | 10.23
Bond    | 89.602     | 89.602     | 89.602     |   0.0 |  1.16
Kspace  | 6354.7     | 6354.7     | 6354.7     |   0.0 | 81.98
Neigh   | 0.028736   | 0.028736   | 0.028736   |   0.0 |  0.00
Comm    | 19.085     | 19.085     | 19.085     |   0.0 |  0.25
Output  | 0.086911   | 0.086911   | 0.086911   |   0.0 |  0.00
Modify  | 481.55     | 481.55     | 481.55     |   0.0 |  6.21
Other   |            | 12.8       |            |       |  0.17

Nlocal:           1500 ave        1500 max        1500 min
Histogram: 1 0 0 0 0 0 0 0 0 0
Nghost:           1015 ave        1015 max        1015 min
Histogram: 1 0 0 0 0 0 0 0 0 0
Neighs:              0 ave           0 max           0 min
Histogram: 1 0 0 0 0 0 0 0 0 0

Total # of neighbors = 0
Ave neighs/atom = 0
Ave special neighs/atom = 2
Neighbor list builds = 16861
Dangerous builds = 0
write_data	last_conf.data pair ij
System init for write_data ...
PPPM initialization ...
  using 12-bit tables for long-range coulomb (src/kspace.cpp:342)
  G vector (1/distance) = 0.16562227
  grid = 30 30 30
  stencil order = 5
  estimated absolute RMS force accuracy = 0.029429479
  estimated relative force accuracy = 8.8626001e-05
  using double precision FFTW3
  3d grid and FFT values/proc = 42875 27000
Generated 1 of 1 mixed pair_coeff terms from arithmetic mixing rule
Total wall time: 2:09:11
