LAMMPS data file via write_data, version 29 Aug 2024, timestep = 0, units = real

1500 atoms
2 atom types
1000 bonds
1 bond types
500 angles
1 angle types

0 141 xlo xhi
0 141 ylo yhi
0 141 zlo zhi

Masses

1 12.0107
2 15.9994

PairIJ Coeffs # lj/cut/coul/long/gpu

1 1 0.053649 2.8 12
1 2 0.0917684 2.925 12
2 2 0.156973 3.05 12

Bond Coeffs # harmonic

1 0 1.16

Angle Coeffs # harmonic

1 0 180

Atoms # full

1 1 1 0.7 10.388410667604028 40.01809042087667 14.045703674222205 0 0 0
2 1 2 -0.35 9.380749923361812 40.255776446510225 13.522516157425647 0 0 0
3 1 2 -0.35 11.396071411846243 39.78040439524311 14.568891191018762 0 0 0
4 2 1 0.7 32.1416526525941 33.756132149024 96.31302864631313 0 0 0
5 2 2 -0.35 32.48897250872368 34.25669923983621 95.32591086958438 0 0 0
6 2 2 -0.35 31.794332796464513 33.255565058211786 97.30014642304188 0 0 0
7 3 1 0.7 53.072458584826656 22.81143518155973 12.791096474412408 0 0 0
8 3 2 -0.35 52.60984972987368 21.74767196672322 12.790163693736375 0 0 0
9 3 2 -0.35 53.53506743977963 23.87519839639624 12.79202925508844 0 0 0
10 4 1 0.7 95.95844544934036 15.592667063508493 87.9553363872484 0 0 0
11 4 2 -0.35 94.87338613158136 15.791711001659655 88.31398355039016 0 0 0
12 4 2 -0.35 97.04350476709936 15.393623125357331 87.59668922410663 0 0 0
13 5 1 0.7 21.338660483871895 75.86675243492553 29.50817379332528 0 0 0
14 5 2 -0.35 21.166001708827473 76.15173088444577 30.619288652693655 0 0 0
15 5 2 -0.35 21.511319258916316 75.58177398540529 28.397058933956906 0 0 0
16 6 1 0.7 46.87694441800795 93.80483345957698 56.83595511030217 0 0 0
17 6 2 -0.35 45.78947023361854 93.97839310476724 56.471432205880504 0 0 0
18 6 2 -0.35 47.964418602397366 93.63127381438673 57.20047801472384 0 0 0
19 7 1 0.7 107.89753884863924 32.93542907989371 120.75654577359396 0 0 0
20 7 2 -0.35 106.87616624907407 33.198105196141036 120.2734316351021 0 0 0
21 7 2 -0.35 108.91891144820441 32.67275296364638 121.23965991208581 0 0 0
22 8 1 0.7 1.2648167937364507 107.77585232852765 102.75008556421385 0 0 0
23 8 2 -0.35 0.7899233940067473 108.79328461035104 103.04147501288492 0 0 0
24 8 2 -0.35 1.7397101934661543 106.75842004670426 102.45869611554278 0 0 0
25 9 1 0.7 93.68807774208862 68.52261128347489 112.52784136241667 0 0 0
26 9 2 -0.35 93.34732073903984 69.23462985862861 111.67783300156998 0 0 0
27 9 2 -0.35 94.0288347451374 67.81059270832117 113.37784972326335 0 0 0
28 10 1 0.7 22.429778136978754 84.2811482019169 27.25782961736332 0 0 0
29 10 2 -0.35 22.4363574469531 83.32160622769965 27.909623996286236 0 0 0
30 10 2 -0.35 22.42319882700441 85.24069017613417 26.606035238440406 0 0 0
31 11 1 0.7 13.342379025343051 55.364278940653556 48.436155564354806 0 0 0
32 11 2 -0.35 12.947968053790506 55.33510086180589 49.52665481939065 0 0 0
33 11 2 -0.35 13.736789996895597 55.39345701950122 47.34565630931896 0 0 0
34 12 1 0.7 73.46657011120885 15.643859087323705 102.33968064949833 0 0 0
35 12 2 -0.35 72.54723133258209 16.327267378605292 102.52235335550728 0 0 0
36 12 2 -0.35 74.38590888983562 14.960450796042117 102.15700794348939 0 0 0
37 13 1 0.7 105.0126761184133 51.04752217235394 111.70515075265669 0 0 0
38 13 2 -0.35 105.09764629523544 49.89667961434547 111.58707672618459 0 0 0
39 13 2 -0.35 104.92770594159116 52.198364730362414 111.8232247791288 0 0 0
40 14 1 0.7 13.468699901117338 63.43923807909677 122.2743953793656 0 0 0
41 14 2 -0.35 12.76768049560828 63.09840613335226 123.13346777320662 0 0 0
42 14 2 -0.35 14.169719306626396 63.78007002484127 121.41532298552458 0 0 0
43 15 1 0.7 131.7631409977391 138.11074900120067 85.35846317948702 0 0 0
44 15 2 -0.35 130.9765039205253 138.11686396936088 84.5059582141543 0 0 0
45 15 2 -0.35 132.5497780749529 138.10463403304047 86.21096814481973 0 0 0
46 16 1 0.7 85.69065763833497 28.882927495931707 113.36242412420103 0 0 0
47 16 2 -0.35 84.54113033471407 28.73275217253616 113.32199702347518 0 0 0
48 16 2 -0.35 86.84018494195587 29.033102819327254 113.40285122492688 0 0 0
49 17 1 0.7 90.26225544664183 18.72729170915079 37.59175569731359 0 0 0
50 17 2 -0.35 89.29052897666453 19.298980478994732 37.86473851358557 0 0 0
51 17 2 -0.35 91.23398191661913 18.15560293930685 37.3187728810416 0 0 0
52 18 1 0.7 124.63800474937912 94.94582281491991 57.44405035881515 0 0 0
53 18 2 -0.35 123.82236621249065 95.56760826836485 56.90209406258204 0 0 0
54 18 2 -0.35 125.45364328626759 94.32403736147496 57.98600665504826 0 0 0
55 19 1 0.7 35.15438060609362 49.6748466154909 24.147066555520084 0 0 0
56 19 2 -0.35 34.97463996758563 49.98646521724551 23.044257800608676 0 0 0
57 19 2 -0.35 35.334121244601604 49.36322801373629 25.24987531043149 0 0 0
58 20 1 0.7 41.74759862606768 35.8901083194139 7.050524389394804 0 0 0
59 20 2 -0.35 42.668057752498555 35.825416442984356 7.753496620492255 0 0 0
60 20 2 -0.35 40.8271394996368 35.95480019584344 6.347552158297352 0 0 0
61 21 1 0.7 58.163412558456606 140.47486998023226 57.13975776365947 0 0 0
62 21 2 -0.35 58.97304922958566 139.7463994951985 57.53903112014313 0 0 0
63 21 2 -0.35 57.35377588732755 0.20334046526602378 56.740484407175806 0 1 0
64 22 1 0.7 137.90873382469115 74.08939158408408 49.40435370123216 0 0 0
65 22 2 -0.35 136.98342881216135 73.40501818215063 49.25928929997111 0 0 0
66 22 2 -0.35 138.83403883722096 74.77376498601754 49.54941810249321 0 0 0
67 23 1 0.7 130.97265660901212 106.43962766669672 63.82219417198664 0 0 0
68 23 2 -0.35 131.7352953542586 107.0393392070819 63.18632609401941 0 0 0
69 23 2 -0.35 130.21001786376564 105.83991612631155 64.45806224995387 0 0 0
70 24 1 0.7 72.61744857934184 126.45827299843462 91.19428469063449 0 0 0
71 24 2 -0.35 71.7980108641819 127.19814981275793 91.55023992742734 0 0 0
72 24 2 -0.35 73.43688629450178 125.71839618411131 90.83832945384164 0 0 0
73 25 1 0.7 32.3427954937065 30.363862725144187 46.440821498372046 0 0 0
74 25 2 -0.35 31.298974826778306 29.880496466512064 46.29117031959429 0 0 0
75 25 2 -0.35 33.38661616063469 30.84722898377631 46.5904726771498 0 0 0
76 26 1 0.7 95.8869231389309 82.51719601150472 131.51336535975028 0 0 0
77 26 2 -0.35 94.80585699551351 82.8141043365267 131.21547034453636 0 0 0
78 26 2 -0.35 96.96798928234828 82.22028768648275 131.8112603749642 0 0 0
79 27 1 0.7 29.131601322969235 62.823435143951066 65.47446438552554 0 0 0
80 27 2 -0.35 28.28491670190515 62.74919857147805 64.68502529112938 0 0 0
81 27 2 -0.35 29.97828594403332 62.897671716424085 66.2639034799217 0 0 0
82 28 1 0.7 65.32292752774569 56.44295882174883 129.80891713258293 0 0 0
83 28 2 -0.35 64.49263079844191 56.99751113416516 130.39940766942595 0 0 0
84 28 2 -0.35 66.15322425704947 55.888406509332505 129.2184265957399 0 0 0
85 29 1 0.7 5.470247321515459 6.446732710323637 62.236662409378525 0 0 0
86 29 2 -0.35 4.3108746466739145 6.471526534500325 62.265649770649546 0 0 0
87 29 2 -0.35 6.629619996357004 6.4219388861469495 62.207675048107504 0 0 0
88 30 1 0.7 73.58511442485504 34.018138538588836 128.85441806253718 0 0 0
89 30 2 -0.35 72.66528893551872 34.067172850617304 128.14935302623832 0 0 0
90 30 2 -0.35 74.50493991419135 33.96910422656037 129.55948309883604 0 0 0
91 31 1 0.7 37.20437706224824 99.96528520619742 101.54846056017486 0 0 0
92 31 2 -0.35 37.51655720388219 98.97974319381947 101.02229471083889 0 0 0
93 31 2 -0.35 36.89219692061429 100.95082721857537 102.07462640951083 0 0 0
94 32 1 0.7 60.976634859096556 46.30207683579162 20.005379149692775 0 0 0
95 32 2 -0.35 60.18526358463245 45.45462208761532 19.97143867611743 0 0 0
96 32 2 -0.35 61.76800613356066 47.149531583967914 20.03931962326812 0 0 0
97 33 1 0.7 86.40736888647423 89.64887497231777 2.6416597448483388 0 0 0
98 33 2 -0.35 85.26623737438256 89.48550921069204 2.771006179046607 0 0 0
99 33 2 -0.35 87.5485003985659 89.8122407339435 2.5123133106500704 0 0 0
100 34 1 0.7 124.37533166602968 51.199310960806585 124.81931827628023 0 0 0
101 34 2 -0.35 123.37671404275169 51.14690334195276 124.23142688838219 0 0 0
102 34 2 -0.35 125.37394928930767 51.25171857966041 125.40720966417827 0 0 0
103 35 1 0.7 40.2822694416541 83.10250588045572 98.81633281932041 0 0 0
104 35 2 -0.35 39.13605788092824 83.28070797112002 98.80976982143343 0 0 0
105 35 2 -0.35 41.42848100237996 82.92430378979142 98.82289581720738 0 0 0
106 36 1 0.7 108.10569431823943 6.404406650180186 55.862569578393625 0 0 0
107 36 2 -0.35 107.12506152098294 5.849558456278944 56.13843693541407 0 0 0
108 36 2 -0.35 109.08632711549592 6.9592548440814275 55.58670222137318 0 0 0
109 37 1 0.7 104.20690406170064 44.43656500262979 109.34799919898994 0 0 0
110 37 2 -0.35 103.04769739839669 44.4339859983554 109.3051826077119 0 0 0
111 37 2 -0.35 105.36611072500459 44.43914400690418 109.39081579026798 0 0 0
112 38 1 0.7 17.82253742396018 59.386484498803725 110.64497139428043 0 0 0
113 38 2 -0.35 17.865525532937884 59.995766683509714 109.65880343602666 0 0 0
114 38 2 -0.35 17.77954931498248 58.777202314097735 111.6311393525342 0 0 0
115 39 1 0.7 102.03422367108716 47.19723996203264 119.01204188261742 0 0 0
116 39 2 -0.35 101.24563680668375 46.48266897013876 118.55039368882241 0 0 0
117 39 2 -0.35 102.82281053549058 47.91181095392652 119.47369007641244 0 0 0
118 40 1 0.7 9.387921150954405 3.790784090659946 120.70821172171654 0 0 0
119 40 2 -0.35 9.13624289146304 3.831364981571796 121.83985267404735 0 0 0
120 40 2 -0.35 9.63959941044577 3.7502031997480962 119.57657076938573 0 0 0
121 41 1 0.7 34.91440689000972 105.4366003933533 125.94281108907555 0 0 0
122 41 2 -0.35 34.39337445926966 106.18932166735637 125.23039555739457 0 0 0
123 41 2 -0.35 35.435439320749786 104.68387911935024 126.65522662075652 0 0 0
124 42 1 0.7 28.82597409273776 2.1465766435240288 122.5136477083497 0 0 0
125 42 2 -0.35 27.68335376259605 1.980096160448616 122.62456673242501 0 0 0
126 42 2 -0.35 29.96859442287947 2.3130571265994413 122.40272868427438 0 0 0
127 43 1 0.7 63.8770342333601 7.314360083227213 121.44991879977748 0 0 0
128 43 2 -0.35 64.98209380536761 7.372126390395207 121.1019153571641 0 0 0
129 43 2 -0.35 62.771974661352594 7.25659377605922 121.79792224239085 0 0 0
130 44 1 0.7 92.785267860063 122.99692407902187 8.302996120556722 0 0 0
131 44 2 -0.35 92.1644890044086 123.87924588573748 7.876684213889185 0 0 0
132 44 2 -0.35 93.40604671571741 122.11460227230626 8.72930802722426 0 0 0
133 45 1 0.7 99.45579819681858 139.60029392996816 22.14008097496819 0 0 0
134 45 2 -0.35 98.33383360741774 139.36830061257578 22.32166996366495 0 0 0
135 45 2 -0.35 100.57776278621941 139.83228724736054 21.95849198627143 0 0 0
136 46 1 0.7 9.340946290335127 60.284301662484324 113.25804137403985 0 0 0
137 46 2 -0.35 9.033197417886882 59.94157251815452 114.32266683171677 0 0 0
138 46 2 -0.35 9.648695162783373 60.627030806814126 112.19341591636292 0 0 0
139 47 1 0.7 27.901373487851288 113.38421031664322 33.42279182254467 0 0 0
140 47 2 -0.35 27.177763550096714 113.53247007670706 34.31722331881961 0 0 0
141 47 2 -0.35 28.624983425605862 113.23595055657938 32.52836032626973 0 0 0
142 48 1 0.7 133.8621615082315 25.348468846803748 70.71590823061574 0 0 0
143 48 2 -0.35 132.85211316093373 24.78349131225516 70.7946655894873 0 0 0
144 48 2 -0.35 134.8722098555293 25.913446381352337 70.63715087174418 0 0 0
145 49 1 0.7 33.26963195869216 97.70432973918707 30.66992651702367 0 0 0
146 49 2 -0.35 33.44980372990805 96.81359532264324 29.949003267265944 0 0 0
147 49 2 -0.35 33.08946018747627 98.59506415573091 31.390849766781393 0 0 0
148 50 1 0.7 114.45497161683392 122.70796412774733 86.75309504929608 0 0 0
149 50 2 -0.35 113.78517950144288 121.91534411249617 87.27148875448862 0 0 0
150 50 2 -0.35 115.12476373222495 123.50058414299849 86.23470134410354 0 0 0
151 51 1 0.7 119.26849351928965 89.57057870112851 96.71622986705799 0 0 0
152 51 2 -0.35 118.44458375262856 90.12551732718104 97.315242235641 0 0 0
153 51 2 -0.35 120.09240328595074 89.01564007507598 96.11721749847499 0 0 0
154 52 1 0.7 61.67537564350077 87.03844031739906 121.06641452622898 0 0 0
155 52 2 -0.35 61.62422918419662 85.87960016729518 121.07499043480279 0 0 0
156 52 2 -0.35 61.72652210280492 88.19728046750295 121.05783861765518 0 0 0
157 53 1 0.7 133.2289423305676 98.8337498497375 118.83372453825255 0 0 0
158 53 2 -0.35 132.1892709691478 98.75590515726132 118.32517398609795 0 0 0
159 53 2 -0.35 134.2686136919874 98.91159454221368 119.34227509040716 0 0 0
160 54 1 0.7 114.40831441078721 43.540302100842965 132.85740886761687 0 0 0
161 54 2 -0.35 113.68810413559243 44.40977049641752 133.12372046819195 0 0 0
162 54 2 -0.35 115.128524685982 42.67083370526841 132.5910972670418 0 0 0
163 55 1 0.7 58.47083803660741 90.37488126073725 78.62934921105827 0 0 0
164 55 2 -0.35 57.64759427506377 90.20795948025203 79.42935347872134 0 0 0
165 55 2 -0.35 59.294081798151055 90.54180304122248 77.8293449433952 0 0 0
166 56 1 0.7 71.47219025645042 54.101640162105504 118.2662045072141 0 0 0
167 56 2 -0.35 70.33313427088528 54.046761785984344 118.05374315641694 0 0 0
168 56 2 -0.35 72.61124624201555 54.15651853822666 118.47866585801125 0 0 0
169 57 1 0.7 23.099152747587837 54.46022870878699 82.06390858304869 0 0 0
170 57 2 -0.35 21.99081067260305 54.527984199312456 81.72836866244002 0 0 0
171 57 2 -0.35 24.207494822572624 54.39247321826153 82.39944850365735 0 0 0
172 58 1 0.7 127.11155529930795 72.90991546861358 106.9492809884014 0 0 0
173 58 2 -0.35 127.48460309129837 71.90126081275618 107.38408109202176 0 0 0
174 58 2 -0.35 126.73850750731754 73.91857012447097 106.51448088478104 0 0 0
175 59 1 0.7 28.565572062304977 137.56965115972312 15.127041466593296 0 0 0
176 59 2 -0.35 28.30953500508411 136.51288671961024 14.722945013450541 0 0 0
177 59 2 -0.35 28.821609119525842 138.626415599836 15.53113791973605 0 0 0
178 60 1 0.7 17.185929033526186 75.90926647461451 39.04163884606289 0 0 0
179 60 2 -0.35 16.1661213057662 75.6439987794895 38.55663859005875 0 0 0
180 60 2 -0.35 18.205736761286172 76.17453416973953 39.52663910206702 0 0 0
181 61 1 0.7 99.82408577894051 125.40968665313426 92.603579227628 0 0 0
182 61 2 -0.35 98.75371037264084 125.70437551422454 92.9398156990854 0 0 0
183 61 2 -0.35 100.89446118524019 125.11499779204398 92.2673427561706 0 0 0
184 62 1 0.7 30.356078743634782 56.61544426978354 67.7718422518912 0 0 0
185 62 2 -0.35 30.92013153913754 57.426555387212545 68.3797429009027 0 0 0
186 62 2 -0.35 29.792025948132025 55.80433315235453 67.1639416028797 0 0 0
187 63 1 0.7 43.352727535345 82.29168654339932 7.37573491240653 0 0 0
188 63 2 -0.35 42.288858738079874 82.71687595364212 7.194083742239483 0 0 0
189 63 2 -0.35 44.41659633261012 81.86649713315653 7.5573860825735775 0 0 0
190 64 1 0.7 24.976672816545083 25.940027673235175 2.0451040636026785 0 0 0
191 64 2 -0.35 25.016920146217146 26.847167086253673 1.3232465722633404 0 0 0
192 64 2 -0.35 24.93642548687302 25.032888260216676 2.7669615549420166 0 0 0
193 65 1 0.7 109.06399697021767 38.59707844843952 101.09748292299801 0 0 0
194 65 2 -0.35 109.33400522249961 37.983272125763776 102.0440225903881 0 0 0
195 65 2 -0.35 108.79398871793573 39.21088477111526 100.15094325560793 0 0 0
196 66 1 0.7 95.39548682765825 0.9471124522141705 126.11898436356289 0 0 0
197 66 2 -0.35 94.65267942508702 1.1739400117455967 125.25736587436805 0 0 0
198 66 2 -0.35 96.13829423022948 0.7202848926827444 126.98060285275773 0 0 0
199 67 1 0.7 28.770198401422334 51.72453270513775 69.22117525023462 0 0 0
200 67 2 -0.35 28.373972900111745 50.733187864878325 68.76747847947006 0 0 0
201 67 2 -0.35 29.166423902732923 52.71587754539717 69.67487202099919 0 0 0
202 68 1 0.7 9.29243069341985 90.88266430743163 11.939015003358486 0 0 0
203 68 2 -0.35 8.637732734768035 91.54836733728314 11.25067638103393 0 0 0
204 68 2 -0.35 9.947128652071667 90.21696127758011 12.627353625683043 0 0 0
205 69 1 0.7 16.025161446083878 24.88842433173602 93.74774348724063 0 0 0
206 69 2 -0.35 14.922792676985772 24.944634482792775 94.10442754328365 0 0 0
207 69 2 -0.35 17.127530215181984 24.832214180679262 93.3910594311976 0 0 0
208 70 1 0.7 84.32479005322084 55.7464244825516 126.15627824475816 0 0 0
209 70 2 -0.35 83.21101968437571 55.824540788251305 125.84161428389447 0 0 0
210 70 2 -0.35 85.43856042206596 55.6683081768519 126.47094220562184 0 0 0
211 71 1 0.7 91.56845965030065 117.1013426031458 44.265131071333364 0 0 0
212 71 2 -0.35 92.61178082088311 116.66226661066615 44.51869212481451 0 0 0
213 71 2 -0.35 90.5251384797182 117.54041859562544 44.01157001785222 0 0 0
214 72 1 0.7 48.057915899929554 61.39253011596973 127.25365910318385 0 0 0
215 72 2 -0.35 46.90067143102183 61.41081294209313 127.33144713215627 0 0 0
216 72 2 -0.35 49.21516036883728 61.37424728984632 127.17587107421143 0 0 0
217 73 1 0.7 64.24854721093948 47.33297425989666 3.298386083123454 0 0 0
218 73 2 -0.35 64.19666007040699 48.42694903244581 3.6806515951349272 0 0 0
219 73 2 -0.35 64.30043435147196 46.238999487347506 2.916120571111981 0 0 0
220 74 1 0.7 22.974899055890226 81.12843234703337 55.562456589919734 0 0 0
221 74 2 -0.35 21.82554831069489 81.22404756009593 55.4381561653431 0 0 0
222 74 2 -0.35 24.12424980108556 81.03281713397081 55.686757014496365 0 0 0
223 75 1 0.7 136.20790678086126 111.28926593544394 73.69257700615216 0 0 0
224 75 2 -0.35 135.67061691199632 110.59694202863906 72.93257226611331 0 0 0
225 75 2 -0.35 136.7451966497262 111.98158984224881 74.45258174619102 0 0 0
226 76 1 0.7 7.141742399494044 40.264508296393096 66.590937478743 0 0 0
227 76 2 -0.35 8.09915663141978 40.593177665986026 67.15744823238978 0 0 0
228 76 2 -0.35 6.184328167568309 39.935838926800166 66.02442672509622 0 0 0
229 77 1 0.7 76.88620523358053 102.45136078794084 8.020762921786291 0 0 0
230 77 2 -0.35 76.06667471493792 103.0568680096945 7.466388740012335 0 0 0
231 77 2 -0.35 77.70573575222313 101.84585356618719 8.575137103560248 0 0 0
232 78 1 0.7 8.96242646219322 43.50155008141955 45.55221841835986 0 0 0
233 78 2 -0.35 9.098379050739393 42.99429166589054 44.517904252575306 0 0 0
234 78 2 -0.35 8.826473873647046 44.00880849694856 46.58653258414441 0 0 0
235 79 1 0.7 107.1349573741364 47.228587110633306 81.86356841393912 0 0 0
236 79 2 -0.35 106.22202028504822 46.60477003621321 81.51285752299171 0 0 0
237 79 2 -0.35 108.0478944632246 47.8524041850534 82.21427930488653 0 0 0
238 80 1 0.7 2.9943330748911636 129.75598969578556 102.91881706794669 0 0 0
239 80 2 -0.35 3.929442423822186 129.16287526483535 103.26433953804148 0 0 0
240 80 2 -0.35 2.059223725960141 130.34910412673577 102.5732945978519 0 0 0
241 81 1 0.7 109.5584609799825 30.053690565775003 50.37733898050028 0 0 0
242 81 2 -0.35 108.81445725266164 30.889477885496692 50.68314612548728 0 0 0
243 81 2 -0.35 110.30246470730336 29.217903246053314 50.07153183551327 0 0 0
244 82 1 0.7 127.93624526818108 115.47422231942146 51.2545225165107 0 0 0
245 82 2 -0.35 128.21164411598284 114.43452461908554 51.68901551593149 0 0 0
246 82 2 -0.35 127.66084642037933 116.51392001975738 50.82002951708991 0 0 0
247 83 1 0.7 65.75993499521162 69.22746452187535 114.99621915910217 0 0 0
248 83 2 -0.35 64.87665733349438 69.27608843965102 114.24584839279296 0 0 0
249 83 2 -0.35 66.64321265692887 69.17884060409968 115.74658992541137 0 0 0
250 84 1 0.7 54.45540703016119 1.0259559191884269 41.24113379988872 0 0 0
251 84 2 -0.35 55.60651344039337 0.8826206391410221 41.238128834644215 0 0 0
252 84 2 -0.35 53.30430061992901 1.1692911992358317 41.24413876513323 0 0 0
253 85 1 0.7 124.7357747297435 46.16588279892033 127.9922014540025 0 0 0
254 85 2 -0.35 125.64175234466293 45.48578299368487 127.74266424999558 0 0 0
255 85 2 -0.35 123.82979711482406 46.845982604155786 128.2417386580094 0 0 0
256 86 1 0.7 68.92983742008444 47.77751935914974 1.767869229786037 0 0 0
257 86 2 -0.35 68.29448676443309 48.09265961878008 2.6858104921353885 0 0 0
258 86 2 -0.35 69.56518807573579 47.4623790995194 0.8499279674366855 0 0 0
259 87 1 0.7 102.57814501392568 23.88324904902058 119.76676688891219 0 0 0
260 87 2 -0.35 102.26470958305252 23.3742102202925 120.76086834325199 0 0 0
261 87 2 -0.35 102.89158044479883 24.39228787774866 118.77266543457239 0 0 0
262 88 1 0.7 4.051101947227075 124.87042704544515 53.26735279674985 0 0 0
263 88 2 -0.35 4.055752673725613 124.6115700149139 52.136613477327565 0 0 0
264 88 2 -0.35 4.046451220728536 125.12928407597641 54.39809211617213 0 0 0
265 89 1 0.7 55.39845497459102 58.83275795114821 110.1628849479197 0 0 0
266 89 2 -0.35 54.62236031448561 59.32542277127458 109.45538339063114 0 0 0
267 89 2 -0.35 56.174549634696426 58.34009313102184 110.87038650520824 0 0 0
268 90 1 0.7 36.607319686378965 76.22196897129619 77.63250057521857 0 0 0
269 90 2 -0.35 37.361457560619584 75.44621427020274 78.05092704470543 0 0 0
270 90 2 -0.35 35.853181812138345 76.99772367238964 77.21407410573171 0 0 0
271 91 1 0.7 96.43716769872101 24.47751240407932 96.55097536116418 0 0 0
272 91 2 -0.35 95.43114970510476 24.27902002127984 96.00863914580427 0 0 0
273 91 2 -0.35 97.44318569233727 24.6760047868788 97.09331157652409 0 0 0
274 92 1 0.7 104.242895086409 85.3377172762238 19.014261493465987 0 0 0
275 92 2 -0.35 103.35691539520695 85.04521986628161 19.703525776564007 0 0 0
276 92 2 -0.35 105.12887477761106 85.63021468616598 18.324997210367968 0 0 0
277 93 1 0.7 66.69292068280882 98.91791596772052 123.41366947880651 0 0 0
278 93 2 -0.35 65.53392466024995 98.8707276518314 123.42374333289946 0 0 0
279 93 2 -0.35 67.85191670536769 98.96510428360963 123.40359562471356 0 0 0
280 94 1 0.7 103.542930301066 24.02957001609242 40.983260465312405 0 0 0
281 94 2 -0.35 103.63238535933814 23.3672727683581 41.93139555494524 0 0 0
282 94 2 -0.35 103.45347524279384 24.691867263826744 40.03512537567957 0 0 0
283 95 1 0.7 20.65864050558705 67.77097740153361 28.817187575538266 0 0 0
284 95 2 -0.35 19.507748735770726 67.63228361670535 28.859757144705178 0 0 0
285 95 2 -0.35 21.809532275403377 67.90967118636188 28.774618006371355 0 0 0
286 96 1 0.7 136.4715820716096 30.879877542555278 118.10185772650962 0 0 0
287 96 2 -0.35 135.85340129137788 31.215003461553472 119.02443191938937 0 0 0
288 96 2 -0.35 137.0897628518413 30.544751623557083 117.17928353362987 0 0 0
289 97 1 0.7 80.92280944712591 124.65837784514686 14.356443383431268 0 0 0
290 97 2 -0.35 80.9148117986354 125.11984553153924 13.292214267106086 0 0 0
291 97 2 -0.35 80.93080709561643 124.19691015875448 15.42067249975645 0 0 0
292 98 1 0.7 37.743945329330835 3.489150063362508 127.14511493367381 0 0 0
293 98 2 -0.35 37.45249492127185 2.905393123085105 128.1042210249485 0 0 0
294 98 2 -0.35 38.03539573738982 4.072907003639911 126.18600884239912 0 0 0
295 99 1 0.7 72.94669025575122 20.023128410812063 102.71920051831714 0 0 0
296 99 2 -0.35 71.84938863817301 19.747476610099625 102.46318246265656 0 0 0
297 99 2 -0.35 74.04399187332943 20.2987802115245 102.97521857397771 0 0 0
298 100 1 0.7 138.60311135631198 41.49256553570394 120.54895857607431 0 0 0
299 100 2 -0.35 138.3355208366308 42.60943905660273 120.38589769145793 0 0 0
300 100 2 -0.35 138.87070187599318 40.375692014805146 120.7120194606907 0 0 0
301 101 1 0.7 37.34678808103632 96.46727797736752 107.54096561602363 0 0 0
302 101 2 -0.35 36.475651977943905 96.37191000452368 106.78094795856782 0 0 0
303 101 2 -0.35 38.21792418412874 96.56264595021135 108.30098327347943 0 0 0
304 102 1 0.7 103.0091085089413 76.08670977646797 60.331213097242276 0 0 0
305 102 2 -0.35 104.10442893976817 76.46855880244425 60.32318345377502 0 0 0
306 102 2 -0.35 101.91378807811442 75.70486075049169 60.33924274070953 0 0 0
307 103 1 0.7 55.698525350866156 26.115572007426795 132.4187288221059 0 0 0
308 103 2 -0.35 54.67242217150291 25.575893487533417 132.38052724535402 0 0 0
309 103 2 -0.35 56.7246285302294 26.655250527320174 132.45693039885776 0 0 0
310 104 1 0.7 17.575313133921156 134.28784181284152 129.75734842743603 0 0 0
311 104 2 -0.35 16.41571827586756 134.30968192827768 129.7358362324434 0 0 0
312 104 2 -0.35 18.73490799197475 134.26600169740536 129.77886062242865 0 0 0
313 105 1 0.7 125.75501991703874 115.61974567017506 100.06547863225707 0 0 0
314 105 2 -0.35 124.8750767176075 116.2658044216778 99.67316746063251 0 0 0
315 105 2 -0.35 126.63496311646998 114.97368691867233 100.45778980388162 0 0 0
316 106 1 0.7 93.49937234469661 139.95099731579003 135.411886483157 0 0 0
317 106 2 -0.35 92.36934327123078 139.8724234976033 135.16196559924072 0 0 0
318 106 2 -0.35 94.62940141816244 140.02957113397676 135.66180736707327 0 0 0
319 107 1 0.7 127.57612241971125 125.88950808713656 119.96242050405705 0 0 0
320 107 2 -0.35 128.27511493288839 124.97203004683666 120.08588512283427 0 0 0
321 107 2 -0.35 126.87712990653414 126.80698612743646 119.83895588527983 0 0 0
322 108 1 0.7 49.40141168674519 81.52621912654779 114.16485988868627 0 0 0
323 108 2 -0.35 50.55246449127602 81.57054570919915 114.3016538770489 0 0 0
324 108 2 -0.35 48.250358882214364 81.48189254389642 114.02806590032363 0 0 0
325 109 1 0.7 40.80014915009968 45.10676572523395 93.41154400697516 0 0 0
326 109 2 -0.35 39.652241489482876 45.2079631913319 93.27862645526501 0 0 0
327 109 2 -0.35 41.94805681071648 45.005568259136 93.54446155868531 0 0 0
328 110 1 0.7 73.82012523143558 35.84476473780571 90.96094830052971 0 0 0
329 110 2 -0.35 74.59136800900825 36.60998113790215 91.36743131255537 0 0 0
330 110 2 -0.35 73.04888245386292 35.07954833770927 90.55446528850405 0 0 0
331 111 1 0.7 58.658087002885566 135.46825749774848 88.00376465870244 0 0 0
332 111 2 -0.35 57.8192352360953 135.7610155596774 88.74956652952905 0 0 0
333 111 2 -0.35 59.49693876967583 135.17549943581957 87.25796278787583 0 0 0
334 112 1 0.7 130.2726188117045 43.904368317641485 47.718314600511604 0 0 0
335 112 2 -0.35 129.3973885521876 43.18954787327716 47.98023772882367 0 0 0
336 112 2 -0.35 131.14784907122137 44.61918876200581 47.45639147219954 0 0 0
337 113 1 0.7 134.71349079847033 92.63984989078709 75.9571144585298 0 0 0
338 113 2 -0.35 133.72133962752483 93.21661180524228 76.1261758320764 0 0 0
339 113 2 -0.35 135.70564196941584 92.0630879763319 75.7880530849832 0 0 0
340 114 1 0.7 138.2227045103082 133.99470474989837 138.00273154210427 0 0 0
341 114 2 -0.35 137.14004694098767 133.73233547389822 137.67928919700373 0 0 0
342 114 2 -0.35 139.30536207962874 134.25707402589853 138.32617388720482 0 0 0
343 115 1 0.7 102.90902814637359 86.03605610087331 52.99488737759874 0 0 0
344 115 2 -0.35 103.82265302739272 86.17040254679932 52.29286130311873 0 0 0
345 115 2 -0.35 101.99540326535445 85.9017096549473 53.696913452078746 0 0 0
346 116 1 0.7 129.0721553019584 30.714160014742127 11.887367770954672 0 0 0
347 116 2 -0.35 129.30123456446685 29.639127668973607 11.516654745772097 0 0 0
348 116 2 -0.35 128.84307603944993 31.789192360510647 12.258080796137246 0 0 0
349 117 1 0.7 134.99012643517466 89.05499598060501 32.31744602849588 0 0 0
350 117 2 -0.35 135.18065039731752 88.94331381550893 31.178662592609655 0 0 0
351 117 2 -0.35 134.7996024730318 89.1666781457011 33.456229464382105 0 0 0
352 118 1 0.7 27.31540093026841 134.94343502118411 9.312401041533985 0 0 0
353 118 2 -0.35 26.160809093367103 135.01622742044154 9.397365485692804 0 0 0
354 118 2 -0.35 28.469992767169717 134.8706426219267 9.227436597375165 0 0 0
355 119 1 0.7 3.5243050616813383 12.99517167825027 0.8503963522847725 0 0 0
356 119 2 -0.35 4.521400785468458 13.42178797534818 1.2619770280409448 0 0 0
357 119 2 -0.35 2.527209337894219 12.56855538115236 0.4388156765286002 0 0 0
358 120 1 0.7 51.61149285017116 2.360332826785898 49.11381979059141 0 0 0
359 120 2 -0.35 50.95943946446688 1.4759109165144375 49.485605033471444 0 0 0
360 120 2 -0.35 52.26354623587544 3.2447547370573586 48.74203454771137 0 0 0
361 121 1 0.7 41.96922046969143 94.68843410382439 102.51198297669737 0 0 0
362 121 2 -0.35 40.923881046119575 94.2076508274149 102.65933605827838 0 0 0
363 121 2 -0.35 43.01455989326328 95.16921738023389 102.36462989511635 0 0 0
364 122 1 0.7 39.89788935282169 108.82635287420189 133.51275671111082 0 0 0
365 122 2 -0.35 38.944746048794144 108.23611066319714 133.2148775840548 0 0 0
366 122 2 -0.35 40.85103265684924 109.41659508520664 133.81063583816686 0 0 0
367 123 1 0.7 74.90204363963662 30.64745137265299 18.715220178810515 0 0 0
368 123 2 -0.35 74.89305176396081 31.18183292022253 17.68567877226631 0 0 0
369 123 2 -0.35 74.91103551531242 30.113069825083453 19.74476158535472 0 0 0
370 124 1 0.7 116.70554526835008 19.099325159610867 86.35795757982784 0 0 0
371 124 2 -0.35 115.55346774037412 19.19646506548927 86.45219774227854 0 0 0
372 124 2 -0.35 117.85762279632604 19.002185253732463 86.26371741737714 0 0 0
373 125 1 0.7 105.1930441666362 121.49330865475038 117.03856038955905 0 0 0
374 125 2 -0.35 104.31407466979798 121.8730011516805 116.38369686835564 0 0 0
375 125 2 -0.35 106.07201366347442 121.11361615782026 117.69342391076246 0 0 0
376 126 1 0.7 117.08446731887966 42.64222841041266 125.93289380564023 0 0 0
377 126 2 -0.35 116.44033468193862 41.74667237148896 126.29160333600521 0 0 0
378 126 2 -0.35 117.7285999558207 43.537784449336364 125.57418427527526 0 0 0
379 127 1 0.7 3.1461913954216016 3.0387828508572574 30.823374357923576 0 0 0
380 127 2 -0.35 2.7957292650904573 3.9885666322134954 31.389666741658694 0 0 0
381 127 2 -0.35 3.496653525752746 2.0889990695010194 30.25708197418846 0 0 0
382 128 1 0.7 14.4528336215079 106.77467668325393 54.99101544869646 0 0 0
383 128 2 -0.35 13.544394827891479 106.25066129428964 54.49528686329781 0 0 0
384 128 2 -0.35 15.36127241512432 107.29869207221822 55.48674403409511 0 0 0
385 129 1 0.7 119.99664624128334 60.63337724918191 58.17142700039383 0 0 0
386 129 2 -0.35 118.9361422813265 61.09818383235534 58.241328296193515 0 0 0
387 129 2 -0.35 121.05715020124019 60.168570666008485 58.10152570459414 0 0 0
388 130 1 0.7 134.1735956190031 42.62156858510411 60.70320984474533 0 0 0
389 130 2 -0.35 133.10375629151235 42.39537311017378 60.31606720891815 0 0 0
390 130 2 -0.35 135.24343494649384 42.847764060034436 61.09035248057251 0 0 0
391 131 1 0.7 103.84786063472174 72.99368776846383 104.91032457161243 0 0 0
392 131 2 -0.35 103.11783300950415 72.20433346932876 105.34573180266878 0 0 0