LAMMPS data file via write_data, version 29 Aug 2024, timestep = 4000000, units = real

1500 atoms
2 atom types
1000 bonds
1 bond types
500 angles
1 angle types

0 141 xlo xhi
0 141 ylo yhi
0 141 zlo zhi

Masses

1 12.0107
2 15.9994

PairIJ Coeffs # lj/cut/coul/long/gpu

1 1 0.053649 2.8 12
1 2 0.0917684 2.925 12
2 2 0.156973 3.05 12

Bond Coeffs # harmonic

1 0 1.16

Angle Coeffs # harmonic

1 0 180

Atoms # full

564 188 2 -0.35 5.5191396878406485 7.165880540940325 15.510656894946518 7 0 1
562 188 1 0.7 5.341185430897078 7.784756308636805 16.475501476521554 7 0 1
563 188 2 -0.35 5.163231173953508 8.403632076333286 17.44034605809659 7 0 1
351 117 2 -0.35 11.834435016535416 16.603376999849278 13.04726848955721 -3 -4 0
349 117 1 0.7 11.362941528312922 15.879562968553968 12.273067521679566 -3 -4 0
674 225 2 -0.35 9.813204290598128 3.9213123105435077 5.689771454572512 -1 -3 6
673 225 1 0.7 10.900372402119528 4.298721122887078 5.544072842171415 -1 -3 6
350 117 2 -0.35 10.891448040090426 15.155748937258657 11.498866553801921 -3 -4 0
675 225 2 -0.35 11.987540513640926 4.676129935230648 5.398374229770319 -1 -3 6
1329 443 2 -0.35 6.566135769222405 17.08012065412976 16.87045619174351 -1 0 -1
1327 443 1 0.7 7.673337424919682 16.931673175008243 17.182974734495698 -1 0 -1
1328 443 2 -0.35 8.780539080616965 16.783225695886724 17.495493277247895 -1 0 -1
669 223 2 -0.35 27.28659706004621 17.50029935837844 15.844083520625569 7 -5 1
667 223 1 0.7 28.41207287903379 17.506417106962374 16.124915773090397 7 -5 1
668 223 2 -0.35 29.53754869802137 17.512534855546306 16.40574802555523 7 -5 1
585 195 2 -0.35 26.594736734461616 18.408086352957877 5.2859652836806035 -7 -4 5
583 195 1 0.7 27.2739257043178 18.905773297243158 4.488086816298391 -7 -4 5
584 195 2 -0.35 27.953114674173985 19.40346024152844 3.6902083489161774 -7 -4 5
498 166 2 -0.35 78.42894095652052 8.114848680605736 18.20523637832022 -6 2 1
497 166 2 -0.35 79.43291704597505 6.023335229056629 18.203367208170754 -6 2 1
496 166 1 0.7 78.93092900124778 7.069091954831182 18.204301793245484 -6 2 1
64 22 1 0.7 81.53130352058446 1.0679790917711456 16.252866116530132 3 7 1
66 22 2 -0.35 81.13479060719726 0.24410171003450953 16.96673134847194 3 7 1
1011 337 2 -0.35 98.77896206981008 14.457989475171662 7.931653789322187 1 6 -8
1010 337 2 -0.35 98.4408918579683 14.294701646745668 10.22107415634893 1 6 -8
1009 337 1 0.7 98.60992696388918 14.376345560958665 9.076363972835559 1 6 -8
65 22 2 -0.35 81.92781643397166 1.891856473507782 15.539000884588326 3 7 1
832 278 1 0.7 138.11115280243806 16.073762526230073 13.837815367069734 9 -3 10
834 278 2 -0.35 137.67182365368626 15.361820718933073 13.034242867491177 9 -3 10
18 6 2 -0.35 123.66918621301198 6.827508054307383 7.4481061357891445 0 -1 2
16 6 1 0.7 124.42059595788052 7.0374933988129404 8.306528846584166 0 -1 2
17 6 2 -0.35 125.17200570274906 7.2474787433184975 9.164951557379188 0 -1 2
183 61 2 -0.35 136.5291125326757 11.853763304214882 18.53926110654414 -4 -3 8
181 61 1 0.7 137.2835308128627 12.041147224187561 17.678249884169336 -4 -3 8
182 61 2 -0.35 138.0379490930497 12.228531144160241 16.817238661794534 -4 -3 8
833 278 2 -0.35 138.55048195118982 16.78570433352707 14.641387866648289 9 -3 10
1286 429 2 -0.35 121.00615676888528 18.73886560641038 19.282301509387153 0 -1 4
1061 354 2 -0.35 9.883749055167685 23.129880981172946 9.01362952817269 3 -3 2
1060 354 1 0.7 9.089383705091393 23.289061841238446 8.183421635904221 3 -3 2
1062 354 2 -0.35 8.2950183550151 23.448242701303947 7.353213743635754 3 -3 2
966 322 2 -0.35 16.164341819457828 32.28627336298837 7.065333099828427 5 -4 -2
964 322 1 0.7 16.351361930715743 31.513934756155994 7.910387272282285 5 -4 -2
965 322 2 -0.35 16.538382041973662 30.741596149323616 8.755441444736142 5 -4 -2
971 324 2 -0.35 15.281684241713894 31.63197242437974 1.8792020761125185 7 4 -3
970 324 1 0.7 14.557363782465401 31.445446213429296 2.7658631415378014 7 4 -3
972 324 2 -0.35 13.83304332321691 31.258920002478852 3.6525242069630846 7 4 -3
228 76 2 -0.35 36.19937394113983 27.239867236547095 12.763674695889573 1 6 -6
226 76 1 0.7 35.572046419891294 26.39398553254226 13.25003292180616 1 6 -6
227 76 2 -0.35 34.94471889864276 25.548103828537425 13.736391147722744 1 6 -6
172 58 1 0.7 34.270662663048434 33.954013938027 19.80670479753494 2 -7 3
173 58 2 -0.35 35.377027082160325 33.60972630105364 19.861693843249316 2 -7 3
1496 499 2 -0.35 63.25364720004722 29.090321352201613 11.577023744360343 -1 -8 -2
1495 499 1 0.7 63.7832771942189 28.094591078164886 11.305706051163762 -1 -8 -2
1497 499 2 -0.35 64.31290718839057 27.09886080412816 11.034388357967183 -1 -8 -2
811 271 1 0.7 94.84853053337618 30.034074920125004 11.199030124009122 0 -1 1
812 271 2 -0.35 95.59137782718871 30.492395683374752 11.963045814980568 0 -1 1
813 271 2 -0.35 94.10568323956363 29.57575415687526 10.435014433037676 0 -1 1
920 307 2 -0.35 81.18148868823667 39.72680863206283 8.65345139051588 -5 -8 0
1115 372 2 -0.35 125.62391873625639 25.440686641821483 10.60745950390872 -6 -1 -5
1114 372 1 0.7 124.50226354875586 25.662975677510474 10.412325639684115 -6 -1 -5
1116 372 2 -0.35 123.38060836125534 25.88526471319946 10.217191775459508 -6 -1 -5
733 245 1 0.7 13.847449742347992 52.15423535266751 13.11371495832492 2 -1 0
735 245 2 -0.35 13.069219515693518 51.322639262161815 13.3337278138051 2 -1 0
734 245 2 -0.35 14.625679969002464 52.98583144317321 12.89370210284474 2 -1 0
51 17 2 -0.35 0.242443576290023 45.16137810662466 20.15151408422147 -3 8 -3
49 17 1 0.7 0.9363543511514543 45.994026860843114 19.738254010383102 -3 8 -3
50 17 2 -0.35 1.6302651260128855 46.82667561506157 19.324993936544736 -3 8 -3
1200 400 2 -0.35 24.732099759267065 51.88684727908337 4.0191906482773145 2 -5 0
1198 400 1 0.7 24.062911998659978 52.67919448621649 4.538780529244169 2 -5 0
1199 400 2 -0.35 23.39372423805289 53.47154169334961 5.058370410211025 2 -5 0
95 32 2 -0.35 26.490040278711337 57.77163215142578 7.81682961619965 1 2 0
94 32 1 0.7 26.523421282549954 58.60427002704522 8.623799179855416 1 2 0
96 32 2 -0.35 26.55680228638857 59.43690790266466 9.430768743511182 1 2 0
1182 394 2 -0.35 26.039606794035492 46.96868400633481 17.357890157282903 9 1 1
1180 394 1 0.7 25.595675112461727 46.378559094123055 16.463307992200853 9 1 1
1181 394 2 -0.35 25.15174343088795 45.7884341819113 15.568725827118815 9 1 1
157 53 1 0.7 58.369415549616775 44.754651250729395 15.671477282682533 -3 3 1
1190 397 2 -0.35 44.17567373391232 53.788941961484824 8.159021851355742 -3 2 -5
1189 397 1 0.7 43.74660576670441 54.303693631883604 7.212168432216239 -3 2 -5
1191 397 2 -0.35 43.31753779949651 54.81844530228238 6.265315013076735 -3 2 -5
158 53 2 -0.35 58.734441131865175 45.43090301036111 16.540407591683 -3 3 1
159 53 2 -0.35 58.004389967368375 44.078399491097684 14.802546973682066 -3 3 1
1252 418 1 0.7 80.0375007691184 43.09286037328846 12.36084572940292 1 -3 1
1254 418 2 -0.35 79.57865394015926 44.071237945523706 11.939138587295643 1 -3 1
1249 417 1 0.7 64.55062307305644 46.2649266623183 18.77812087163827 7 0 -1
1251 417 2 -0.35 63.61924855840196 45.864583634411574 18.21432394591152 7 0 -1
1250 417 2 -0.35 65.48199758771094 46.665269690225024 19.34191779736502 7 0 -1
1253 418 2 -0.35 80.49634759807753 42.11448280105322 12.782552871510198 1 -3 1
640 214 1 0.7 89.03142872452439 42.968319315920276 11.449344611806781 1 1 -2
641 214 2 -0.35 90.00557196571333 43.55028942262523 11.690084597160281 1 1 -2
642 214 2 -0.35 88.05728548333543 42.38634920921533 11.20860462645328 1 1 -2
921 307 2 -0.35 83.27994375444572 40.093154130992346 9.572514669353357 -5 -8 0
919 307 1 0.7 82.2307162213412 39.90998138152759 9.112983029934618 -5 -8 0
21 7 2 -0.35 97.28141445179428 49.53187981007635 0.4480462801098106 3 2 -3
1211 404 2 -0.35 114.11870116466615 58.819777912067366 18.387143731705404 1 3 -1
1210 404 1 0.7 113.72288284739025 58.81634597283194 17.296769446653723 1 3 -1
1212 404 2 -0.35 113.32706453011434 58.81291403359652 16.206395161602053 1 3 -1
1163 388 2 -0.35 126.79856642022398 42.71858379099231 13.21012224880598 -2 -1 3
1162 388 1 0.7 125.95833131281418 42.76140790205305 12.411516551488335 -2 -1 3
1164 388 2 -0.35 125.11809620540437 42.80423201311379 11.612910854170691 -2 -1 3
837 279 2 -0.35 122.79132076844589 48.98345031370317 4.510287692976751 -8 7 -7
836 279 2 -0.35 121.80537241653353 50.40565001836774 6.055491190067 -8 7 -7
835 279 1 0.7 122.29834659248971 49.694550166035455 5.282889441521875 -8 7 -7
457 153 1 0.7 14.108644943069637 70.42892372307556 18.43662637757633 5 8 3
459 153 2 -0.35 14.983576824326418 69.68216041197783 18.586422106352092 5 8 3
458 153 2 -0.35 13.233713061812855 71.1756870341733 18.286830648800567 5 8 3
1217 406 2 -0.35 31.059566255721222 79.14125988514017 11.82964878334583 -3 -3 -2
1216 406 1 0.7 31.506073745734547 78.3832497986522 12.585725347026173 -3 -3 -2
1218 406 2 -0.35 31.952581235747875 77.62523971216422 13.341801910706517 -3 -3 -2
548 183 2 -0.35 36.68603071428631 79.00826083884856 11.897116403343118 -4 5 4
547 183 1 0.7 37.564992989372925 78.26562428768564 12.043800662389955 -4 5 4
549 183 2 -0.35 38.44395526445954 77.52298773652272 12.190484921436793 -4 5 4
672 224 2 -0.35 53.9384007930253 64.05092778666305 6.878314132609997 0 3 0
671 224 2 -0.35 52.64665616770228 65.78778234261512 7.71325848669021 0 3 0
670 224 1 0.7 53.29252848036379 64.91935506463909 7.295786309650103 0 3 0
806 269 2 -0.35 97.80593631043168 62.83301427275737 11.777949524466981 -3 6 -2
805 269 1 0.7 97.53765511798504 62.09268849313679 12.6297376095033 -3 6 -2
815 272 2 -0.35 82.46478551429117 80.47927609005227 15.00764173458328 -4 -3 1
807 269 2 -0.35 97.2693739255384 61.352362713516214 13.481525694539618 -3 6 -2
1462 488 1 0.7 87.79499792173293 68.58708430101427 10.05710547231822 -2 -3 8
1463 488 2 -0.35 86.80748969871598 68.40549413882647 10.638012110662382 -2 -3 8
1464 488 2 -0.35 88.78250614474987 68.76867446320207 9.476198833974056 -2 -3 8
1207 403 1 0.7 101.90623760465878 67.79441019867836 3.224847328470054 -2 -6 8
1208 403 2 -0.35 102.39418696380766 67.18034750616499 4.079500727557098 -2 -6 8
1209 403 2 -0.35 101.41828824550991 68.40847289119174 2.3701939293830097 -2 -6 8
311 104 2 -0.35 117.64182722753823 64.60840276986268 4.042645590734428 5 3 1
310 104 1 0.7 118.39385091143221 65.39726283947206 3.645455246643814 5 3 1
312 104 2 -0.35 119.14587459532618 66.18612290908146 3.2482649025532 5 3 1
285 95 2 -0.35 115.28250117170596 69.67810147647768 2.616870947601947 3 -1 3
283 95 1 0.7 114.51697867362414 69.50971971589932 3.4719866635365104 3 -1 3
284 95 2 -0.35 113.75145617554233 69.34133795532097 4.327102379471074 3 -1 3
494 165 2 -0.35 102.60054911101399 71.94044744079022 3.740615757772043 -1 4 6
495 165 2 -0.35 103.64438683928388 69.9459282767728 4.301593566072986 -1 4 6
493 165 1 0.7 103.12246797514894 70.94318785878151 4.021104661922514 -1 4 6
35 12 2 -0.35 137.1683410020697 77.16193981794332 4.218050256665131 -5 1 2
34 12 1 0.7 136.72470235096526 76.78599870665106 5.221769853010212 -5 1 2
36 12 2 -0.35 136.2810636998608 76.4100575953588 6.225489449355294 -5 1 2
121 41 1 0.7 14.18009413301652 83.96778858826775 7.194199280425885 1 -2 5
123 41 2 -0.35 14.28560685797521 85.08138973326187 6.887019276620803 1 -2 5
122 41 2 -0.35 14.074581408057831 82.85418744327363 7.501379284230969 1 -2 5
117 39 2 -0.35 14.518291876930368 93.40426077153958 12.933949110782246 -1 1 -1
116 39 2 -0.35 14.790885938522141 94.20642480260415 10.774174737184934 -1 1 -1
115 39 1 0.7 14.654588907726254 93.80534278707187 11.85406192398359 -1 1 -1
86 29 2 -0.35 10.46425907216564 81.28907359285688 0.4415997269397097 0 -5 8
1283 428 2 -0.35 30.09544874781333 95.86093366317374 0.14661102700836615 -5 -2 -7
337 113 1 0.7 38.25572457318808 94.21183866381836 16.667655934587472 3 3 0
339 113 2 -0.35 38.26561746052363 95.05480058380651 17.464472935052292 3 3 0
1282 428 1 0.7 29.365514259420323 95.96203566839255 140.25074606665123 -5 -2 -8
710 237 2 -0.35 32.10292600796731 98.16201340525099 17.553184622450193 -2 -1 -6
338 113 2 -0.35 38.24583168585254 93.3688767438302 15.87083893412265 3 3 0
711 237 2 -0.35 33.05194061552442 96.17944233999522 16.810767458145914 -2 -1 -6
709 237 1 0.7 32.577433311745864 97.1707278726231 17.181976040298053 -2 -1 -6
1175 392 2 -0.35 46.227206665797944 83.67570388577674 14.274417446817546 4 3 1
1174 392 1 0.7 46.315432218634655 83.75916268712253 13.120792342937209 4 3 1
1176 392 2 -0.35 46.40365777147137 83.84262148846831 11.96716723905687 4 3 1
413 138 2 -0.35 48.22625479744746 91.19992931686609 17.583419532435947 3 -1 0
414 138 2 -0.35 50.215311345001204 90.95985162579713 18.753212998344196 3 -1 0
412 138 1 0.7 49.22078307122433 91.07989047133161 18.16831626539007 3 -1 0
879 293 2 -0.35 78.48463458807078 87.12943220877975 5.893408574531078 -8 4 0
878 293 2 -0.35 77.38807095788218 89.16976225951029 5.763018816387462 -8 4 0
877 293 1 0.7 77.93635277297648 88.14959723414502 5.82821369545927 -8 4 0
1347 449 2 -0.35 69.57078327498469 97.12812172913684 0.541876848684036 3 -9 1
814 272 1 0.7 82.9367611558263 81.42809353137697 15.47943030676164 -4 -3 1
816 272 2 -0.35 83.40873679736143 82.37691097270167 15.951218878939999 -4 -3 1
31 11 1 0.7 83.23922906378198 97.83741143161126 0.009574370988061777 -6 3 0
33 11 2 -0.35 82.49993217107831 98.35145329255599 0.7408753142636245 -6 3 0
719 240 2 -0.35 130.2942260744649 91.32431865714376 3.1740523377951226 -7 -2 -3
718 240 1 0.7 129.86396481164044 91.48785043659474 2.109283535274128 -7 -2 -3
720 240 2 -0.35 129.43370354881603 91.65138221604572 1.0445147327531341 -7 -2 -3
996 332 2 -0.35 1.9587468319251384 106.33799769516573 6.844809291579064 0 4 2
995 332 2 -0.35 140.81935864434027 106.00454114013168 6.011607690086062 -1 4 2
994 332 1 0.7 0.8890527381327101 106.1712694176487 6.428208490832563 0 4 2
740 247 2 -0.35 4.7675326145976324 117.4257499271788 19.054857243171494 3 -6 2
739 247 1 0.7 3.7456965268491897 117.61475373987261 19.570345912846427 3 -6 2
741 247 2 -0.35 2.7238604391007466 117.80375755256641 20.08583458252136 3 -6 2
441 147 2 -0.35 36.88469195395769 106.9221993948412 16.519206717799943 -8 -4 0
439 147 1 0.7 35.86734811227286 107.0203363437378 15.970589686487786 -8 -4 0
440 147 2 -0.35 34.85000427058802 107.11847329263438 15.421972655175631 -8 -4 0
1071 357 2 -0.35 64.76243839074148 118.14519781895136 5.482556311972904 -2 3 3
1069 357 1 0.7 63.73501078724405 118.49357068574847 5.893200763110161 -2 3 3
1070 357 2 -0.35 62.707583183746614 118.84194355254557 6.303845214247417 -2 3 3
1355 452 2 -0.35 65.092705416215 111.58014522316633 1.800314862407561 -1 -3 -4
1354 452 1 0.7 66.12993825517796 111.68016510891252 1.290663942430831 -1 -3 -4
1356 452 2 -0.35 67.16717109414093 111.78018499465871 0.7810130224541013 -1 -3 -4
196 66 1 0.7 74.8807006089923 120.01849962968237 10.644934922281607 5 -3 -7
198 66 2 -0.35 74.3074821390041 119.10759974122054 10.212174042735612 5 -3 -7
900 300 2 -0.35 99.21394962512095 115.99775734374113 2.8479529449512473 -5 -2 1
898 300 1 0.7 98.65774553427057 117.0006320703863 3.0225361399539166 -5 -2 1
899 300 2 -0.35 98.10154144342019 118.00350679703146 3.197119334956586 -5 -2 1
1402 468 1 0.7 98.81092380839716 104.25832417130164 18.944372693605366 5 3 -2
1403 468 2 -0.35 98.96872818585548 103.28348923743366 18.335772143025707 5 3 -2
1404 468 2 -0.35 98.65311943093884 105.23315910516962 19.552973244185015 5 3 -2
1173 391 2 -0.35 112.90524611755811 105.31050465231513 15.630510293572117 1 -3 7
1171 391 1 0.7 111.94236090103493 105.76256076684327 16.09321681948353 1 -3 7
1172 391 2 -0.35 110.97947568451175 106.2146168813714 16.55592334539494 1 -3 7
792 264 2 -0.35 116.62984296601961 119.79133314984806 6.949796377756567 6 -2 2
790 264 1 0.7 116.6403510717133 118.63379187556438 6.8750449359959775 6 -2 2
791 264 2 -0.35 116.65085917740699 117.47625060128071 6.800293494235388 6 -2 2
954 318 2 -0.35 106.9389338107181 117.80570036547392 1.8956773537502034 7 -2 4
952 318 1 0.7 106.98940046871232 118.74560426243941 2.5736403180044594 7 -2 4
953 318 2 -0.35 107.03986712670655 119.68550815940489 3.2516032822587153 7 -2 4
621 207 2 -0.35 20.95662847719612 126.60024677444733 18.968724346784846 2 -2 6
619 207 1 0.7 20.338550463972606 126.71473114781452 17.993802351022016 2 -2 6
620 207 2 -0.35 19.72047245074909 126.82921552118171 17.01888035525919 2 -2 6
936 312 2 -0.35 8.64194843190411 126.32156435822802 14.516632159168367 1 -2 -1
934 312 1 0.7 9.589721537223939 126.60405036616405 13.910391451073096 1 -2 -1
935 312 2 -0.35 10.537494642543766 126.88653637410006 13.304150742977827 1 -2 -1
191 64 2 -0.35 26.406426527196253 130.2405428551148 20.111494514283876 1 -8 6
422 141 2 -0.35 60.59448537194932 124.15886836977057 12.715078432969062 -8 1 5
404 135 2 -0.35 52.60908880658562 124.74241664452269 14.442051031676497 1 4 5
403 135 1 0.7 53.44013084460849 124.0233856655466 14.813485524303799 1 4 5
405 135 2 -0.35 54.27117288263136 123.30435468657052 15.1849200169311 1 4 5
893 298 2 -0.35 74.40005762579652 139.29303652986047 15.658063279456632 0 -4 5
892 298 1 0.7 74.754182090671 140.22807009608448 16.246202798118983 0 -4 5
421 141 1 0.7 61.28034338499175 123.26110801202877 12.978185114776485 -8 1 5
423 141 2 -0.35 61.966201398034194 122.36334765428695 13.24129179658391 -8 1 5
894 298 2 -0.35 75.10830655554545 0.16310366230847828 16.83434231678133 0 -3 5
1098 366 2 -0.35 73.06655921824724 125.69967495329162 4.84577470258162 -3 -2 -3
1096 366 1 0.7 74.17386585245193 125.4336345798273 5.066443090737221 -3 -2 -3
1097 366 2 -0.35 75.28117248665662 125.16759420636299 5.287111478892822 -3 -2 -3
197 66 2 -0.35 75.4539190789805 120.92939951814418 11.077695801827602 5 -3 -7
1452 484 2 -0.35 84.26474003087387 128.38465586558496 10.113810283854312 7 2 7
1450 484 1 0.7 84.61080378344815 127.67446291414089 10.963201743003072 7 2 7
1451 484 2 -0.35 84.95686753602244 126.96426996269682 11.812593202151835 7 2 7
1274 425 2 -0.35 19.574615575468574 2.5144466135198975 32.86169556503083 1 -2 7
1273 425 1 0.7 19.854327415818666 3.3937120459747243 33.56472727531027 1 -2 7
1275 425 2 -0.35 20.13403925616876 4.272977478429551 34.2677589855897 1 -2 7
62 21 2 -0.35 37.67757909899503 2.084281914481381 39.61348533072188 0 -2 3
61 21 1 0.7 37.985915978336074 1.108467943710878 39.067302702578566 0 -2 3
1105 369 1 0.7 56.37696339150472 9.141648686739213 40.26421764241797 8 -7 -4
1013 338 2 -0.35 41.473534263043206 10.448278319537348 27.51431523985942 -1 -2 0
1012 338 1 0.7 41.09569177218681 11.151849121858891 28.355637519503322 -1 -2 0
1014 338 2 -0.35 40.71784928133042 11.855419924180435 29.196959799147226 -1 -2 0
8 3 2 -0.35 54.15491973247307 4.823963360649381 24.19034030650088 3 0 2
7 3 1 0.7 53.17569589398005 4.948015863686829 24.799710186473053 3 0 2
9 3 2 -0.35 52.19647205548702 5.072068366724278 25.40908006644523 3 0 2
1106 369 2 -0.35 56.108332180079756 9.704962547389945 39.286406430247425 8 -7 -4
983 328 2 -0.35 80.11612805608421 9.386173079962711 35.052916636298676 7 1 2
982 328 1 0.7 79.6299787378542 9.417439121055464 36.10566602483244 7 1 2
984 328 2 -0.35 79.1438294196242 9.448705162148217 37.1584154133662 7 1 2
521 174 2 -0.35 62.8064572684188 19.790893914248883 36.72009114005057 3 2 -5
397 133 1 0.7 119.79487598385467 9.338616550719365 30.931798303178383 4 -2 0
398 133 2 -0.35 120.46015588513599 10.06970540306929 31.538849983780153 4 -2 0
399 133 2 -0.35 119.12959608257336 8.607527698369438 30.324746622576612 4 -2 0
1287 429 2 -0.35 121.28293201893845 18.822408586417016 21.5842172401303 0 -1 4
1285 429 1 0.7 121.14454439391187 18.7806370964137 20.433259374758727 0 -1 4
84 28 2 -0.35 2.389935406705794 34.18221280507178 30.011449537536244 1 3 -5
82 28 1 0.7 1.6186548772209532 34.95900671349121 29.627629828975934 1 3 -5
83 28 2 -0.35 0.8473743477361129 35.735800621910656 29.243810120415628 1 3 -5
174 58 2 -0.35 33.16429824393654 34.298301575000366 19.751715751820566 2 -7 3
993 331 2 -0.35 24.8119825034871 30.572189196532392 33.316581354253074 2 8 4
992 331 2 -0.35 24.271456096593983 32.38473823100433 31.97311672833859 2 8 4
991 331 1 0.7 24.541719300040544 31.47846371376836 32.644849041295835 2 8 4
576 192 2 -0.35 49.676952473398686 22.573729258102315 27.581032738515713 1 2 -4
575 192 2 -0.35 51.29865673045457 23.6323334711352 26.303600774456097 1 2 -4
574 192 1 0.7 50.487804601926626 23.103031364618758 26.942316756485905 1 2 -4
957 319 2 -0.35 53.44341957674567 33.19562589955763 39.57584134679884 -4 -1 -6
955 319 1 0.7 54.355460742028505 33.891825634718785 39.40529269804153 -4 -1 -6
956 319 2 -0.35 55.26750190731134 34.58802536987994 39.23474404928422 -4 -1 -6
520 174 1 0.7 63.846371406593725 20.300344245051342 36.788200946010114 3 2 -5
522 174 2 -0.35 64.88628554476865 20.809794575853797 36.856310751969666 3 2 -5
516 172 2 -0.35 70.3138331676147 20.248842443222962 31.615165018266243 3 -7 2
514 172 1 0.7 69.41119365762637 20.569204392759282 32.26954268926 3 -7 2
515 172 2 -0.35 68.50855414763802 20.889566342295602 32.92392036025375 3 -7 2
625 209 1 0.7 65.62303950237258 37.20242891554172 36.855176379754504 -1 -1 -6
626 209 2 -0.35 65.49500525641228 36.72709585561887 37.905540942181624 -1 -1 -6
627 209 2 -0.35 65.75107374833287 37.67776197546456 35.804811817327376 -1 -1 -6
605 202 2 -0.35 89.44925417243647 31.542458578583034 39.06704864126773 -2 4 -3
604 202 1 0.7 89.67325488577865 32.372457309066284 38.2882509860219 -2 4 -3
606 202 2 -0.35 89.89725559912084 33.20245603954954 37.50945333077607 -2 4 -3
950 317 2 -0.35 103.41105811746141 30.040655887472695 27.045880889776196 8 2 0
949 317 1 0.7 104.18513687843571 30.151248273872557 27.902718911737033 8 2 0
951 317 2 -0.35 104.95921563941002 30.26184066027242 28.759556933697873 8 2 0
328 110 1 0.7 114.11826639702566 33.99410731099228 30.479518295101233 4 -2 5
329 110 2 -0.35 113.03503698607224 34.01097511754159 30.06487444750831 4 -2 5
330 110 2 -0.35 115.2014958079791 33.977239504442956 30.894162142694157 4 -2 5
482 161 2 -0.35 128.7322931019297 36.13196280098471 36.69194338219321 -8 3 0
483 161 2 -0.35 127.11744230380143 37.674292120217835 37.32113108933481 -8 3 0
481 161 1 0.7 127.92486770286557 36.90312746060127 37.006537235764014 -8 3 0
1302 434 2 -0.35 21.456287562414783 42.06869174112508 36.77604763983008 -6 1 -1
1300 434 1 0.7 21.562113796711916 42.47174648948902 35.69348231711006 -6 1 -1
1301 434 2 -0.35 21.667940031009046 42.874801237852964 34.61091699439004 -6 1 -1
1262 421 2 -0.35 29.74001769970889 58.379942803381134 38.66862655676934 -3 2 -2
1261 421 1 0.7 29.955376266275383 57.36861610163368 38.14285189958193 -3 2 -2
1263 421 2 -0.35 30.17073483284187 56.35728939988621 37.61707724239451 -3 2 -2
519 173 2 -0.35 58.057409439229666 42.296137441533354 26.894425531849876 3 1 -7
517 173 1 0.7 57.234832073580236 41.6148258587938 26.441898179367243 3 1 -7
518 173 2 -0.35 56.412254707930806 40.93351427605425 25.98937082688461 3 1 -7
480 160 2 -0.35 55.58449401471694 45.97707165197995 24.26621021755149 -7 -3 -4
479 160 2 -0.35 54.646895952131075 44.07273463857785 23.329828664753197 -7 -3 -4
478 160 1 0.7 55.11569498342401 45.0249031452789 23.79801944115234 -7 -3 -4
477 159 2 -0.35 60.40848873069675 55.69821108280296 27.909124224058992 1 4 -4
300 100 2 -0.35 81.54437844268772 42.12171849020527 25.1587354944694 -1 1 1
298 100 1 0.7 80.77212409109742 41.93752119219673 24.312984602152188 -1 1 1
299 100 2 -0.35 79.99986973950712 41.7533238941882 23.467233709834975 -1 1 1
444 148 2 -0.35 67.76096703695345 48.551913533185086 23.62356859711561 1 -4 -3
442 148 1 0.7 66.80404421915084 49.08611969828675 23.24340745504949 1 -4 -3
443 148 2 -0.35 65.84712140134823 49.620325863388416 22.86324631298337 1 -4 -3
302 101 2 -0.35 67.73883075833261 54.023852829335105 22.212166391553716 0 0 -3
303 101 2 -0.35 67.30434047575976 53.77351194874954 19.947006874464556 0 0 -3
301 101 1 0.7 67.52158561704618 53.89868238904232 21.079586633009136 0 0 -3
476 159 2 -0.35 60.701305815416994 57.745591667788325 26.857986319155195 1 4 -4
475 159 1 0.7 60.55489727305687 56.721901375295644 27.383555271607094 1 4 -4
504 168 2 -0.35 85.49174193447831 56.18214835314629 33.47737512576707 -1 2 8
502 168 1 0.7 86.48299011667753 56.01713400136004 34.05685532818252 -1 2 8
503 168 2 -0.35 87.47423829887673 55.8521196495738 34.63633553059797 -1 2 8
464 155 2 -0.35 97.70356231885606 58.15424392421825 35.49836987247196 -5 -1 -5
465 155 2 -0.35 97.89050622891554 60.31356941896014 36.32587539043052 -5 -1 -5
463 155 1 0.7 97.7970342738858 59.233906671589196 35.91212263145124 -5 -1 -5
1281 427 2 -0.35 119.85327713727666 41.75677766850517 21.50207809347546 0 -3 1
1280 427 2 -0.35 121.7073644938035 42.66506828046849 22.560269115264315 0 -3 1
1279 427 1 0.7 120.78032081554008 42.21092297448683 22.031173604369886 0 -3 1
281 94 2 -0.35 115.77626941797371 52.07516436111075 21.26907757064268 3 4 4
280 94 1 0.7 115.47537709722232 51.77910111744515 20.188609909367173 3 4 4
282 94 2 -0.35 115.17448477647092 51.48303787377955 19.10814224809167 3 4 4
666 222 2 -0.35 124.14740293905311 54.5303913886717 23.147450258432087 1 4 -7
664 222 1 0.7 123.71125694789124 53.50553143286298 23.47154707324679 1 4 -7
665 222 2 -0.35 123.27511095672939 52.480671477054265 23.795643888061495 1 4 -7
1031 344 2 -0.35 9.031329874507273 62.4611906657855 27.836351050314995 10 3 -4
1030 344 1 0.7 9.26269835869715 61.63485408117237 27.055815033559334 10 3 -4
1032 344 2 -0.35 9.49406684288703 60.80851749655923 26.275279016803673 10 3 -4
1001 334 2 -0.35 9.887521088509297 77.51004701108255 30.879705468281525 6 2 -2
245 82 2 -0.35 15.365053702579523 76.48976273046985 25.483183793221922 -4 7 8
244 82 1 0.7 15.871067119061426 76.9167059782956 24.530676635517114 -4 7 8
246 82 2 -0.35 16.377080535543328 77.34364922612133 23.578169477812306 -4 7 8
1000 334 1 0.7 8.959819155004388 76.94503954219205 31.28681194412095 6 2 -2
1002 334 2 -0.35 8.032117221499478 76.38003207330155 31.693918419960372 6 2 -2
538 180 1 0.7 18.50901440617197 80.6780870783475 33.62497865010914 7 4 -4
540 180 2 -0.35 18.81017307048654 81.18028359675922 32.623628503654174 7 4 -4
539 180 2 -0.35 18.2078557418574 80.17589055993578 34.62632879656411 7 4 -4
1312 438 1 0.7 0.7813262197212587 78.8030873866959 29.319776008142508 1 -2 4
1313 438 2 -0.35 0.0142716407613106 77.9447588078412 29.176600159554543 1 -2 4
1399 467 1 0.7 0.16264253346950905 70.94097901270305 36.858103102502284 1 -3 -3
1401 467 2 -0.35 0.33410923287337724 70.56531991957111 35.77409230147604 1 -3 -3
1314 438 2 -0.35 1.5483807986812086 79.66141596555062 29.46295185673047 1 -2 4
262 88 1 0.7 31.354748369118873 76.1705218566918 29.614382885024614 5 -6 -2
263 88 2 -0.35 31.675405911636886 77.24430302964835 29.314761902730645 5 -6 -2
264 88 2 -0.35 31.03409082660086 75.09674068373525 29.91400386731858 5 -6 -2
1130 377 2 -0.35 47.67288617814082 72.83047624093459 28.959201576261567 5 -3 1
1129 377 1 0.7 47.293570904361246 73.34627791651239 27.991901956418793 5 -3 1
1131 377 2 -0.35 46.914255630581664 73.8620795920902 27.02460233657602 5 -3 1
374 125 2 -0.35 50.470605181176005 77.46018829153226 33.605161201447125 -3 2 3
373 125 1 0.7 50.3852430150345 76.7134339990497 32.72160513234272 -3 2 3
375 125 2 -0.35 50.299880848893 75.96667970656713 31.83804906323831 -3 2 3
297 99 2 -0.35 89.0264971514647 63.222953919668484 32.88407362392506 -4 -1 3
295 99 1 0.7 88.78033137270755 64.03132626985216 33.678766365067894 -4 -1 3
296 99 2 -0.35 88.5341655939504 64.83969862003583 34.47345910621073 -4 -1 3
558 186 2 -0.35 93.85211610453241 81.49455512073632 23.503813426157937 -1 -1 0
357 119 2 -0.35 102.30740409964413 73.00589684398861 21.790644835700604 -8 -1 3
355 119 1 0.7 103.4511720324207 73.08857666132289 21.965456058904447 -8 -1 3
356 119 2 -0.35 104.59493996519727 73.17125647865717 22.14026728210829 -8 -1 3
386 129 2 -0.35 111.17667146501215 62.65860565502611 33.15402484252211 4 -4 3
385 129 1 0.7 111.00074124942978 63.28316497982225 32.1924770230908 4 -4 3
387 129 2 -0.35 110.8248110338474 63.90772430461839 31.230929203659496 4 -4 3
659 220 2 -0.35 112.57552660144027 73.59776272466516 30.04321520537558 -10 -4 0
1225 409 1 0.7 104.92297993550211 68.53263966551968 22.117605799752425 -7 4 3
1226 409 2 -0.35 105.12144058360448 67.4328280833754 22.42845601277446 -7 4 3
658 220 1 0.7 113.06517544689312 72.66186671307966 30.52273857670009 -10 -4 0
1227 409 2 -0.35 104.72451928739976 69.63245124766398 21.806755586730386 -7 4 3
660 220 2 -0.35 113.55482429234598 71.72597070149416 31.002261948024593 -10 -4 0
429 143 2 -0.35 115.51257370569301 77.29680674618403 35.58603703537297 -1 7 0
427 143 1 0.7 115.69484374411012 77.21100041123906 34.44366454534274 -1 7 0
428 143 2 -0.35 115.87711378252722 77.1251940762941 33.301292055312516 -1 7 0
1400 467 2 -0.35 140.99117583406564 71.316638105835 37.94211390352852 0 -3 -3
716 239 2 -0.35 124.08978003723543 79.19829199127967 34.78128584352458 2 4 5
715 239 1 0.7 124.6836604459748 80.02590493500448 35.33622987267961 2 4 5
752 251 2 -0.35 0.5520452159190055 101.24275437234206 21.70001638021539 6 2 -6
751 251 1 0.7 0.45207141040141285 100.67275233138123 22.705353593049935 6 2 -6
753 251 2 -0.35 0.35209760488382025 100.1027502904204 23.710690805884482 6 2 -6
77 26 2 -0.35 7.633320711083999 98.30105366117661 27.30974610995919 5 2 -1
76 26 1 0.7 8.667413415476291 98.57375605033923 27.75906302002127 5 2 -1
78 26 2 -0.35 9.701506119868586 98.84645843950183 28.208379930083346 5 2 -1
1259 420 2 -0.35 20.61865291679047 93.63940946203289 26.289007628820958 -2 -1 -7
546 182 2 -0.35 7.10305998931757 98.96572308469425 39.26499753081389 -6 -6 2
544 182 1 0.7 7.835468748068151 98.108205075688 38.99326186083812 -6 -6 2
545 182 2 -0.35 8.567877506818732 97.25068706668176 38.72152619086234 -6 -6 2
1260 420 2 -0.35 19.618227150885403 95.26198289984912 27.611431057912604 -2 -1 -7
1258 420 1 0.7 20.11844003383794 94.450696180941 26.95021934336678 -2 -1 -7
557 186 2 -0.35 93.31592851423513 81.4702237794299 25.76087143468152 -1 -1 0
556 186 1 0.7 93.58402230938377 81.4823894500831 24.632342430419726 -1 -1 0