LAMMPS (29 Aug 2024 - Update 1)
  using 1 OpenMP thread(s) per MPI task
package gpu 1 gpuID 0
# GCMC for CO2 molecular fluid, rigid/small/nvt dynamics
# Rigid CO2 TraPPE model
# [Potoff and J.I. Siepmann, Vapor-liquid equilibria of
# mixtures containing alkanes, carbon dioxide and
# nitrogen AIChE J., 47,1676-1682 (2001)].

# global model settings

units           real
atom_style      full
boundary        p p p
pair_style      lj/cut/coul/long  12
pair_modify     mix arithmetic shift yes
kspace_style    pppm 1.0e-4
bond_style      harmonic
angle_style     harmonic
neigh_modify    one 4000

# box, start molecules on simple cubic lattice
region          mbox block 0 ${lbox} 0 ${lbox} 0 ${lbox} units box
region          mbox block 0 141 0 ${lbox} 0 ${lbox} units box
region          mbox block 0 141 0 141 0 ${lbox} units box
region          mbox block 0 141 0 141 0 141 units box
create_box      2 mbox                                       bond/types 1                                angle/types 1                               extra/bond/per/atom 2                       extra/angle/per/atom 1                      extra/special/per/atom 2
Created orthogonal box = (0 0 0) to (141 141 141)
  1 by 1 by 1 MPI processor grid
molecule        co2mol ../CO2.txt
Read molecule template co2mol:
# CO2 molecule file. TraPPE model.
  1 molecules
  0 fragments
  3 atoms with max type 2
  2 bonds with max type 1
  1 angles with max type 1
  0 dihedrals with max type 0
  0 impropers with max type 0
create_atoms   	0 random ${nmols} 34578 mbox mol co2mol 464563 overlap 1.2
create_atoms   	0 random 500 34578 mbox mol co2mol 464563 overlap 1.2
Created 1500 atoms
  using lattice units in orthogonal box = (0 0 0) to (141 141 141)
  create_atoms CPU = 0.008 seconds

# rigid CO2 TraPPE model

pair_coeff      1   1  0.053649   2.800
pair_coeff      2   2  0.156973   3.050
bond_coeff      1       0       1.16
angle_coeff     1       0       180

# masses

mass 1 12.0107
mass 2 15.9994

write_data init_conf.data  pair ij
System init for write_data ...
PPPM initialization ...
  using 12-bit tables for long-range coulomb (src/kspace.cpp:342)
  G vector (1/distance) = 0.16590657
  grid = 30 30 30
  stencil order = 5
  estimated absolute RMS force accuracy = 0.029187338
  estimated relative force accuracy = 8.7896802e-05
  using double precision FFTW3
  3d grid and FFT values/proc = 42875 27000
Generated 1 of 1 mixed pair_coeff terms from arithmetic mixing rule

# MD settings

group           co2 type 1 2
1500 atoms in group co2
velocity       	all create 300 54654
timestep        0.25

# rigid constraints with thermostat
fix             myrigidnvt co2 rigid/nvt molecule temp 300 300 $(100*dt)
fix             myrigidnvt co2 rigid/nvt molecule temp 300 300 25
  500 rigid bodies with 1500 atoms

thermo 1000
thermo_style custom step temp density press ke pe etotal


variable    mvol equal vol
variable    mden equal density
variable	mtmp equal temp
variable    mpre equal press

fix mydat all ave/time 1 4000 4000 v_mtmp v_mden v_mpre file statistics.dat ## every 1ps

run 4000000 ## 1ns

CITE-CITE-CITE-CITE-CITE-CITE-CITE-CITE-CITE-CITE-CITE-CITE-CITE

Your simulation uses code contributions which should be cited:

- GPU package (short-range, long-range and three-body potentials): doi:10.1016/j.cpc.2010.12.021, doi:10.1016/j.cpc.2011.10.012, doi:10.1016/j.cpc.2013.08.002, doi:10.1016/j.commatsci.2014.10.068, doi:10.1016/j.cpc.2016.10.020, doi:10.3233/APC200086

@Article{Brown11,
 author = {W. M. Brown and P. Wang and S. J. Plimpton and A. N. Tharrington},
 title = {Implementing Molecular Dynamics on Hybrid High Performance Computers---Short Range Forces},
 journal = {Comput.\ Phys.\ Commun.},
 year =    2011,
 volume =  182,
 pages =   {898--911},
 doi =     {10.1016/j.cpc.2010.12.021}
}

@Article{Brown12,
 author = {W. M. Brown and A. Kohlmeyer and S. J. Plimpton and A. N. Tharrington},
 title = {Implementing Molecular Dynamics on Hybrid High Performance Computers - Particle-Particle Particle-Mesh},
 journal = {Comput.\ Phys.\ Commun.},
 year =    2012,
 volume =  183,
 doi =     {10.1016/j.cpc.2011.10.012},
 pages =   {449--459}
}

@Article{Brown13,
 author = {W. M. Brown and Y. Masako},
 title = {Implementing Molecular Dynamics on Hybrid High Performance Computers---Three-Body Potentials},
 journal = {Comput.\ Phys.\ Commun.},
 year =    2013,
 volume =  184,
 pages =   {2785--2793},
 doi =     {10.1016/j.cpc.2013.08.002},
}

@Article{Trung15,
 author = {T. D. Nguyen and S. J. Plimpton},
 title = {Accelerating Dissipative Particle Dynamics Simulations for Soft Matter Systems},
 journal = {Comput.\ Mater.\ Sci.},
 year =    2015,
 doi =     {10.1016/j.commatsci.2014.10.068},
 volume =  100,
 pages =   {173--180}
}

@Article{Trung17,
 author = {T. D. Nguyen},
 title = {{GPU}-Accelerated {T}ersoff Potentials for Massively Parallel
    Molecular Dynamics Simulations},
 journal = {Comput.\ Phys.\ Commun.},
 year =    2017,
 doi =     {10.1016/j.cpc.2016.10.020},
 volume =  212,
 pages =   {113--122}
}

@inproceedings{Nikolskiy19,
 author = {V. Nikolskiy and V. Stegailov},
 title = {{GPU} Acceleration of Four-Site Water Models in {LAMMPS}},
 booktitle = {Proceedings of the International Conference on Parallel
    Computing (ParCo 2019), Prague, Czech Republic},
 doi =     {10.3233/APC200086},
 year =    2019
}

CITE-CITE-CITE-CITE-CITE-CITE-CITE-CITE-CITE-CITE-CITE-CITE-CITE

PPPM initialization ...
  using 12-bit tables for long-range coulomb (src/kspace.cpp:342)
  G vector (1/distance) = 0.16590657
  grid = 30 30 30
  stencil order = 5
  estimated absolute RMS force accuracy = 0.029187338
  estimated relative force accuracy = 8.7896802e-05
  using double precision FFTW3
  3d grid and FFT values/proc = 42875 27000
Generated 1 of 1 mixed pair_coeff terms from arithmetic mixing rule
Per MPI rank memory allocation (min/avg/max) = 11.38 | 11.38 | 11.38 Mbytes
   Step          Temp         Density         Press          KinEng         PotEng         TotEng    
         0   307.41471      0.013034914   -152.01332      762.70438      6250.708       7013.4124    
      1000   333.85187      0.013034914    14.194269      828.2957      -15.071031      813.22467    
      2000   302.73503      0.013034914    5.9566336      751.09394     -19.76506       731.32888    
      3000   301.62623      0.013034914    5.1140959      748.343       -23.879271      724.46373    
      4000   285.66087      0.013034914    5.0830982      708.73249     -28.437928      680.29456    
      5000   295.43701      0.013034914    12.650384      732.98738     -30.607954      702.37942    
      6000   305.08858      0.013034914    3.3290247      756.93319     -34.910932      722.02226    
      7000   297.83807      0.013034914    6.189071       738.94445     -35.812673      703.13178    
      8000   299.28069      0.013034914    5.9658138      742.52363     -37.639305      704.88433    
      9000   298.93403      0.013034914    7.9666689      741.66357     -34.111115      707.55246    
     10000   306.16922      0.013034914    7.3305791      759.61428     -40.763174      718.85111    
     11000   297.94919      0.013034914    5.8614546      739.22016     -39.789769      699.43039    
     12000   290.20759      0.013034914    11.347263      720.01303     -18.468741      701.54429    
     13000   306.70391      0.013034914    10.594537      760.94085     -41.412632      719.52822    
     14000   292.02284      0.013034914    6.5138929      724.51671     -41.228919      683.28779    
     15000   303.81119      0.013034914    2.3785319      753.76394     -45.589155      708.17478    
     16000   286.0224       0.013034914    5.9991271      709.62945     -49.380605      660.24885    
     17000   301.32237      0.013034914    9.2086908      747.5891      -47.1484        700.4407     
     18000   319.2686       0.013034914    7.5538788      792.1142      -52.676013      739.43819    
     19000   299.56527      0.013034914    7.9064357      743.2297      -53.572116      689.65759    
     20000   295.30124      0.013034914    7.5457881      732.65053     -54.030166      678.62036    
     21000   301.77554      0.013034914    6.9627378      748.71342     -54.964739      693.74869    
     22000   303.37259      0.013034914    10.171308      752.67575     -61.520177      691.15557    
     23000   292.45799      0.013034914    7.2681525      725.59632     -64.010436      661.58589    
     24000   297.00374      0.013034914    6.4538588      736.87445     -63.256422      673.61803    
     25000   304.40928      0.013034914    6.2214245      755.24782     -65.160793      690.08703    
     26000   285.36463      0.013034914    6.928371       707.99752     -62.304037      645.69349    
     27000   293.82121      0.013034914    2.6999339      728.97851     -61.032952      667.94556    
     28000   298.64536      0.013034914    13.085319      740.94737     -57.548806      683.39856    
     29000   298.46716      0.013034914    5.2915308      740.50524     -65.291355      675.21388    
     30000   299.89091      0.013034914    6.3152674      744.03762     -70.898813      673.13881    
     31000   290.13312      0.013034914    6.5439111      719.82826     -72.283946      647.54432    
     32000   298.73398      0.013034914    5.7647226      741.16725     -73.355411      667.81184    
     33000   302.67587      0.013034914    5.7973606      750.94718     -74.920555      676.02662    
     34000   302.26796      0.013034914    8.339755       749.93515     -72.115526      677.81962    
     35000   303.15699      0.013034914    6.3134292      752.14085     -75.126352      677.0145     
     36000   290.45935      0.013034914    1.8056177      720.63765     -76.27655       644.3611     
     37000   304.10982      0.013034914    8.5310185      754.50485     -74.391547      680.1133     
     38000   299.98052      0.013034914    11.429273      744.25993     -73.737977      670.52196    
     39000   300.0593       0.013034914    5.1011906      744.4554      -75.52006       668.93534    
     40000   292.41441      0.013034914   -4.7704898      725.48822     -77.214688      648.27353    
     41000   296.96126      0.013034914    9.1164445      736.76908     -73.996811      662.77227    
     42000   296.00346      0.013034914    17.540586      734.39274     -75.941666      658.45108    
     43000   306.36198      0.013034914   -0.69765109     760.09251     -80.884626      679.20788    
     44000   316.32409      0.013034914   -5.7388125      784.80878     -75.952699      708.85608    
     45000   296.74666      0.013034914    6.4514624      736.23665     -78.914148      657.32251    
     46000   294.53831      0.013034914    10.002241      730.75767     -78.040486      652.71719    
     47000   290.08219      0.013034914    15.617825      719.70191     -82.157272      637.54464    
     48000   311.56003      0.013034914    1.1792833      772.98903     -85.260841      687.72819    
     49000   313.2989       0.013034914    1.8119496      777.30321     -81.152157      696.15105    
     50000   294.75869      0.013034914    6.2885793      731.30443     -77.590006      653.71443    
     51000   291.19197      0.013034914    5.1011969      722.45531     -77.678933      644.77638    
     52000   309.8263       0.013034914    7.1681796      768.68758     -84.926422      683.76116    
     53000   302.03486      0.013034914    4.1155715      749.35682     -85.701358      663.65547    
     54000   285.17884      0.013034914    8.5755928      707.53657     -83.796486      623.74008    
     55000   294.79187      0.013034914    7.7497444      731.38677     -85.959375      645.42739    
     56000   311.2816       0.013034914    10.102812      772.29822     -88.591226      683.70699    
     57000   314.54927      0.013034914    5.4515042      780.4054      -87.767114      692.63828    
     58000   296.81964      0.013034914    5.6622698      736.41771     -87.149716      649.26799    
     59000   297.34791      0.013034914    12.747609      737.72837     -82.281183      655.44718    
     60000   313.25508      0.013034914    7.1014576      777.19449     -83.916977      693.27751    
     61000   289.84654      0.013034914    4.3668832      719.11725     -89.124062      629.99319    
     62000   290.46278      0.013034914    6.6922982      720.64617     -90.51219       630.13398    
     63000   309.32616      0.013034914    6.6011751      767.44674     -92.403723      675.04302    
     64000   308.9757       0.013034914    7.3761906      766.57723     -92.851966      673.72526    
     65000   296.0195       0.013034914    7.5285116      734.43254     -101.04339      633.38916    
     66000   285.92693      0.013034914    6.4842652      709.3926      -95.646717      613.74588    
     67000   300.18714      0.013034914    6.5411883      744.77257     -94.941315      649.83126    
     68000   311.08829      0.013034914    7.4614967      771.81862     -97.743329      674.07529    
     69000   298.60337      0.013034914    5.5405729      740.84318     -101.9921       638.85108    
     70000   293.05677      0.013034914    6.4085602      727.08193     -96.818704      630.26323    
     71000   302.67353      0.013034914    8.8968517      750.94136     -93.912443      657.02892    
     72000   313.45593      0.013034914    6.5526787      777.69281     -91.189035      686.50377    
     73000   296.56207      0.013034914    5.5402179      735.77868     -100.21269      635.56599    
     74000   296.6923       0.013034914    8.3515678      736.10177     -94.580913      641.52086    
     75000   317.0649       0.013034914    11.039168      786.64676     -96.063653      690.5831     
     76000   305.723        0.013034914    4.1517018      758.50719     -97.15927       661.34792    
     77000   293.89016      0.013034914    6.3604391      729.14958     -94.765492      634.38409    
     78000   313.33056      0.013034914    7.0419078      777.38175     -91.326762      686.05499    
     79000   301.64935      0.013034914    8.5374759      748.40036     -95.500395      652.89997    
     80000   302.88809      0.013034914    7.6349114      751.4737      -94.729439      656.74426    
     81000   294.36815      0.013034914    9.7085855      730.33548     -98.8354        631.50008    
     82000   300.47781      0.013034914    6.064479       745.49374     -99.686672      645.80706    
     83000   296.23879      0.013034914    6.2262838      734.97662     -98.663743      636.31287    
     84000   307.35884      0.013034914    10.340638      762.56575     -92.872866      669.69289    
     85000   297.99242      0.013034914    5.8712069      739.3274      -95.048523      644.27888    
     86000   294.75032      0.013034914    4.8639009      731.28367     -93.887042      637.39663    
     87000   314.75265      0.013034914    6.9563708      780.91001     -102.56959      678.34041    
     88000   297.32721      0.013034914    8.77522        737.67702     -101.9711       635.70592    
     89000   296.92037      0.013034914    9.9643092      736.66761     -104.00487      632.66274    
     90000   296.37312      0.013034914    3.9070162      735.30988     -101.20984      634.10004    
     91000   306.88529      0.013034914    11.173612      761.39085     -101.06868      660.32218    
     92000   297.61446      0.013034914    12.495252      738.38967     -109.41183      628.97784    
     93000   296.38251      0.013034914    4.8097442      735.33317     -107.11932      628.21385    
     94000   297.36036      0.013034914    1.3071499      737.75924     -108.14479      629.61445    
     95000   299.35836      0.013034914    3.7300829      742.71634     -113.81691      628.89942    
     96000   304.38285      0.013034914    4.4002667      755.18224     -109.84299      645.33925    
     97000   312.6051       0.013034914    8.2425731      775.58188     -105.98636      669.59551    
     98000   292.30832      0.013034914    5.4418288      725.225       -108.12369      617.1013     
     99000   296.05543      0.013034914    7.7925049      734.52169     -97.191983      637.32971    
    100000   292.45895      0.013034914    7.1642618      725.59872     -101.14888      624.44984    
    101000   315.94009      0.013034914    6.9164475      783.85606     -106.25751      677.59855    
    102000   307.8153       0.013034914    6.0730971      763.69825     -103.41559      660.28266    
    103000   290.07737      0.013034914    5.3015341      719.68996     -107.86261      611.82735    
    104000   294.01752      0.013034914    6.628996       729.46557     -100.47018      628.99539    
    105000   297.48172      0.013034914    7.1079141      738.06035     -106.95633      631.10402    
    106000   310.79223      0.013034914    8.1963886      771.0841      -100.04191      671.04219    
    107000   304.01052      0.013034914    7.4597881      754.25848     -96.137627      658.12086    
    108000   284.83725      0.013034914    6.6915195      706.68906     -90.782081      615.90698    
    109000   298.7134       0.013034914    6.7588483      741.11617     -94.582981      646.53319    
    110000   306.05846      0.013034914    7.2418935      759.33947     -90.732371      668.6071     
    111000   305.75156      0.013034914    5.4455222      758.57804     -91.975774      666.60226    
    112000   292.856        0.013034914    5.8499717      726.58381     -89.588992      636.99482    
    113000   300.11493      0.013034914    5.314661       744.59342     -95.16728       649.42614    
    114000   311.40038      0.013034914    10.765225      772.59293     -96.817643      675.77528    
    115000   293.76297      0.013034914    7.1212346      728.83402     -100.56849      628.26553    
    116000   286.73576      0.013034914    5.9959366      711.39932     -102.85687      608.54245    
    117000   293.06711      0.013034914    6.4369396      727.10758     -106.36153      620.74605    
    118000   300.56069      0.013034914    16.06864       745.69935     -101.82951      643.86984    
    119000   291.64745      0.013034914    3.3142145      723.58536     -98.917119      624.66824    
    120000   310.36482      0.013034914    11.011838      770.02366     -102.73117      667.29249    
    121000   308.19575      0.013034914    19.021111      764.64215     -103.86443      660.77772    
    122000   293.84388      0.013034914    4.6783028      729.03477     -100.83517      628.19961    
    123000   302.73986      0.013034914    6.8222467      751.10595     -96.813703      654.29224    
    124000   300.53749      0.013034914    8.1356424      745.6418      -102.23536      643.40644    
    125000   295.37944      0.013034914    6.6693326      732.84454     -105.34671      627.49783    
    126000   299.04257      0.013034914    6.9055892      741.93286     -99.980338      641.95253    
    127000   299.00021      0.013034914    7.460773       741.82777     -99.983746      641.84402    
    128000   303.196        0.013034914    8.2218554      752.23764     -97.528783      654.70886    
    129000   299.52977      0.013034914    8.036147       743.14162     -100.69061      642.45101    
    130000   297.9742       0.013034914    5.6811492      739.28222     -100.21916      639.06306    
    131000   301.17151      0.013034914    5.0905449      747.21481     -97.325357      649.88945    
    132000   303.732        0.013034914    7.943659       753.56745     -92.395432      661.17202    
    133000   309.99946      0.013034914    7.2621363      769.11721     -97.420827      671.69638    
    134000   291.56284      0.013034914    6.5287935      723.37545     -94.839654      628.5358     
    135000   293.44875      0.013034914    3.4596408      728.05444     -94.123281      633.93115    
    136000   310.27263      0.013034914    2.8046594      769.79495     -97.228567      672.56638    
    137000   297.55286      0.013034914    7.4875993      738.23685     -95.61841       642.61844    
    138000   285.34331      0.013034914    10.45001       707.94463     -100.37985      607.56478    
    139000   305.2281       0.013034914    5.7326699      757.27932     -101.52346      655.75586    
    140000   297.08721      0.013034914    6.6205338      737.08156     -97.403198      639.67836    
    141000   305.67464      0.013034914    6.8416649      758.38721     -105.88033      652.50687    
    142000   299.48784      0.013034914    7.6539444      743.0376      -100.05237      642.98523    
    143000   288.76235      0.013034914    10.901442      716.42734     -95.615337      620.81201    
    144000   302.08859      0.013034914    5.3754299      749.49011     -93.741281      655.74883    
    145000   307.36233      0.013034914    5.7531917      762.57441     -91.204047      671.37037    
    146000   300.25205      0.013034914    4.9906235      744.93361     -93.086642      651.84697    
    147000   299.67757      0.013034914    12.027567      743.50832     -95.569029      647.93929    
    148000   295.05017      0.013034914    8.5614652      732.0276      -90.740232      641.28737    
    149000   303.58165      0.013034914    1.5683677      753.19444     -95.932806      657.26163    
    150000   308.81169      0.013034914    10.300402      766.17031     -99.689605      666.48071    
    151000   295.55884      0.013034914    4.3881551      733.28962     -95.273449      638.01618    
    152000   300.13889      0.013034914    4.1707279      744.65285     -99.445292      645.20756    
    153000   310.11427      0.013034914    13.153623      769.40205     -95.93332       673.46873    
    154000   306.02212      0.013034914    5.0533579      759.24931     -95.242728      664.00658    
    155000   292.7808       0.013034914    0.40997834     726.39724     -91.828666      634.56858    
    156000   316.89193      0.013034914    5.8009152      786.21761     -96.529644      689.68797    
    157000   310.66511      0.013034914    16.288837      770.76871     -93.86057       676.90814    
    158000   285.80104      0.013034914    7.3349902      709.08026     -98.838954      610.24131    
    159000   297.92029      0.013034914    3.9927591      739.14845     -95.691669      643.45678    
    160000   311.66213      0.013034914    7.2408325      773.24232     -94.58285       678.65947    
    161000   300.85842      0.013034914    12.056814      746.43804     -86.734221      659.70382    
    162000   289.38278      0.013034914    2.8035375      717.96665     -85.948516      632.01813    
    163000   317.08778      0.013034914    5.0793554      786.70351     -89.681065      697.02245    
    164000   311.11962      0.013034914    11.608816      771.89634     -92.157834      679.73851    
    165000   286.4109       0.013034914    5.3143497      710.59334     -94.51833       616.07501    
    166000   291.42637      0.013034914   -0.35264407     723.03685     -92.824086      630.21276    
    167000   323.11014      0.013034914    8.1321658      801.64516     -94.963701      706.68146    
    168000   290.39766      0.013034914    11.153731      720.48461     -92.773885      627.71072    
    169000   290.61924      0.013034914    0.06997913     721.03434     -87.482055      633.55229    
    170000   303.03369      0.013034914    1.8271458      751.83495     -88.384367      663.45058    
    171000   310.76908      0.013034914    5.2788013      771.02666     -85.776027      685.25064    
    172000   305.99522      0.013034914    17.399625      759.18258     -85.406124      673.77645    
    173000   287.08569      0.013034914    8.7765748      712.26751     -86.09952       626.16799    
    174000   293.90375      0.013034914    5.5330318      729.18331     -90.68916       638.49415    
    175000   307.38725      0.013034914    5.8291405      762.63624     -88.552447      674.08379    
    176000   304.17447      0.013034914    14.45186       754.66524     -89.429885      665.23536    
    177000   296.22006      0.013034914    9.3396156      734.93014     -95.447967      639.48217    
    178000   302.32245      0.013034914    2.6688872      750.07032     -91.487091      658.58323    
    179000   312.54814      0.013034914    5.9328557      775.44055     -92.355465      683.08508    
    180000   297.26688      0.013034914    9.7016371      737.52733     -95.742169      641.78516    
    181000   294.8327       0.013034914    4.9117345      731.48806     -90.395408      641.09265    
    182000   316.95513      0.013034914    4.0989357      786.37441     -85.674837      700.69958    
    183000   301.45703      0.013034914    8.0764877      747.92321     -88.565881      659.35733    
    184000   293.29252      0.013034914    7.618065       727.66681     -84.658718      643.0081     
    185000   302.13718      0.013034914    9.7428179      749.61068     -81.513363      668.09732    
    186000   300.4847       0.013034914    4.5043083      745.51083     -85.861948      659.64888    
    187000   316.34833      0.013034914    5.7686065      784.86892     -87.551241      697.31768    
    188000   309.54503      0.013034914    8.2070503      767.98975     -85.8506        682.13915    
    189000   306.55656      0.013034914    7.0105443      760.57527     -83.126608      677.44866    
    190000   298.60867      0.013034914    5.9474887      740.85634     -91.754296      649.10204    
    191000   301.0855       0.013034914    7.2130833      747.00142     -87.120262      659.88115    
    192000   301.03586      0.013034914    6.8805229      746.87826     -80.625513      666.25275    
    193000   297.01889      0.013034914    4.5595248      736.91205     -84.399056      652.51299    
    194000   300.89909      0.013034914    6.3409614      746.53894     -84.636361      661.90257    
    195000   300.19194      0.013034914    8.0081177      744.78449     -83.658991      661.1255     
    196000   291.12937      0.013034914    6.1099227      722.29998     -79.93619       642.36379    
    197000   300.01898      0.013034914    5.9902497      744.35535     -78.685819      665.66953    
    198000   297.81816      0.013034914    7.4301944      738.89507     -78.533568      660.3615     
    199000   303.66166      0.013034914    6.268376       753.39295     -75.208177      678.18477    
    200000   303.31394      0.013034914    6.0456689      752.53026     -79.190068      673.34019    
    201000   295.71042      0.013034914    6.5229891      733.6657      -79.4959        654.1698     
    202000   303.13769      0.013034914    7.8819439      752.09297     -80.960746      671.13223    
    203000   303.61783      0.013034914    6.118548       753.2842      -84.950277      668.33392    
    204000   292.17897      0.013034914    5.2880152      724.90409     -87.948013      636.95608    
    205000   297.71484      0.013034914    5.9336893      738.63872     -83.120955      655.51777    
    206000   302.69583      0.013034914    11.449599      750.9967      -81.517416      669.47928    
    207000   296.02772      0.013034914    6.3369354      734.45293     -73.373796      661.07913    
    208000   297.03264      0.013034914    2.1254203      736.94617     -75.557778      661.38839    
    209000   305.4332       0.013034914    7.6597753      757.78819     -75.709822      682.07837    
    210000   305.99174      0.013034914    7.2673302      759.17394     -77.596374      681.57757    
    211000   282.2052       0.013034914    6.6514545      700.15889     -74.666688      625.4922     
    212000   287.24247      0.013034914    6.195539       712.65648     -74.455542      638.20093    
    213000   304.66149      0.013034914    7.2774369      755.87354     -72.704637      683.16891    
    214000   306.5863       0.013034914    4.5496103      760.64907     -69.722829      690.92624    
    215000   285.30474      0.013034914    5.5963925      707.84892     -69.097334      638.75158    
    216000   282.13479      0.013034914    5.7502499      699.98419     -69.203841      630.78035    
    217000   306.13198      0.013034914    6.9551336      759.52189     -73.096705      686.42518    
    218000   304.89909      0.013034914    6.2574138      756.46306     -67.176965      689.28609    
    219000   282.8174       0.013034914    7.1193186      701.67776     -65.472452      636.20531    
    220000   309.01242      0.013034914    7.1152014      766.66832     -68.027601      698.64072    
    221000   312.71686      0.013034914    6.6950484      775.85915     -70.062792      705.79636    
    222000   297.74349      0.013034914    6.0473765      738.70979     -71.252027      667.45777    
    223000   290.47611      0.013034914    7.0219154      720.67923     -71.238979      649.44025    
    224000   310.20348      0.013034914    6.8211451      769.62339     -72.40981       697.21358    
    225000   302.27126      0.013034914    7.255455       749.94332     -69.859016      680.0843     
    226000   290.18718      0.013034914    6.0677831      719.9624      -65.039114      654.92328    
    227000   293.11747      0.013034914    6.7626374      727.23252     -63.644611      663.58791    
    228000   316.9149       0.013034914    7.3588739      786.27461     -65.726619      720.54799    
    229000   306.12346      0.013034914    6.9686644      759.50074     -70.348833      689.15191    
    230000   289.10746      0.013034914    6.4409761      717.28358     -72.550342      644.73323    
    231000   296.39022      0.013034914    7.1649326      735.35231     -71.654302      663.69801    
    232000   316.81401      0.013034914    7.2695738      786.0243      -72.180628      713.84367    
    233000   300.93426      0.013034914    6.4236039      746.6262      -74.314601      672.31159    
    234000   291.44905      0.013034914    7.3305749      723.09312     -69.601529      653.4916     
    235000   293.90535      0.013034914    10.619846      729.18727     -64.355887      664.83138    
    236000   302.6589       0.013034914    5.9783272      750.90507     -68.424764      682.48031    
    237000   304.62214      0.013034914    5.3328973      755.77593     -72.863628      682.9123     
    238000   291.91337      0.013034914    6.0058859      724.24511     -73.767798      650.47731    
    239000   299.51216      0.013034914    6.5165785      743.09792     -74.151522      668.9464     
    240000   299.44722      0.013034914    7.0779333      742.93682     -75.203166      667.73365    
    241000   297.36991      0.013034914    7.7862688      737.78295     -80.14157       657.64138    
    242000   291.1913       0.013034914    7.1305859      722.45364     -75.819311      646.63433    
    243000   302.43972      0.013034914    4.6987368      750.36128     -75.537784      674.82349    
    244000   306.33892      0.013034914    6.7499096      760.0353      -75.58485       684.45045    
    245000   315.66439      0.013034914    8.6922818      783.17205     -73.132689      710.03936    
    246000   294.78552      0.013034914    6.3440735      731.37101     -69.276989      662.09402    
    247000   294.44774      0.013034914    7.5486575      730.53296     -70.166727      660.36623    
    248000   306.08553      0.013034914    7.6283248      759.40664     -70.612038      688.79461    
    249000   291.13856      0.013034914    6.9717801      722.32279     -69.812913      652.50988    
    250000   282.88157      0.013034914    6.5986503      701.83696     -68.016615      633.82035    
    251000   304.94009      0.013034914    7.0249172      756.56478     -62.882358      693.68242    
    252000   315.19125      0.013034914    7.0799328      781.99817     -65.278692      716.71948    
    253000   294.14629      0.013034914    4.1460527      729.78505     -64.040474      665.74458    
    254000   290.45845      0.013034914    5.263909       720.63541     -69.195827      651.43958    
    255000   301.1539       0.013034914    6.1876023      747.17112     -72.355285      674.81584    
    256000   307.64699      0.013034914    6.8933727      763.28067     -71.927564      691.35311    
    257000   290.55904      0.013034914    7.8401352      720.88498     -68.116563      652.76841    
    258000   286.0531       0.013034914    4.7683987      709.70561     -68.368916      641.3367     
    259000   289.56923      0.013034914    6.2586563      718.42925     -66.430931      651.99832    
    260000   309.65841      0.013034914    8.5687856      768.27104     -66.643545      701.62749    
    261000   300.71761      0.013034914    14.720986      746.08867     -66.172159      679.91651    
    262000   289.52207      0.013034914    8.1870984      718.31225     -68.433782      649.87847    
    263000   302.12145      0.013034914    4.7343688      749.57165     -62.85699       686.71466    
    264000   314.03968      0.013034914    6.3952188      779.14111     -61.727858      717.41325    
    265000   290.05263      0.013034914    7.9830984      719.62858     -64.247885      655.38069    
    266000   295.36015      0.013034914    6.8989105      732.79666     -64.181441      668.61522    
    267000   304.93281      0.013034914    4.2263849      756.54671     -68.601704      687.94501    
    268000   319.00848      0.013034914    7.3107629      791.46884     -65.890696      725.57815    
    269000   295.39604      0.013034914    7.481432       732.88573     -67.605604      665.28013    
    270000   299.83644      0.013034914   -2.8431092      743.90246     -66.239457      677.66301    
    271000   311.78565      0.013034914    7.503026       773.5488      -65.314967      708.23383    
    272000   300.52685      0.013034914    28.295357      745.61539     -60.702143      684.91325    
    273000   289.73349      0.013034914    9.3049948      718.83678     -62.497141      656.33963    
    274000   299.80416      0.013034914   -2.5937129      743.82239     -64.910498      678.91189    
    275000   308.36026      0.013034914    4.1386564      765.0503      -62.67577       702.37453    
    276000   306.38206      0.013034914    10.113828      760.14234     -62.724869      697.41747    
    277000   291.2674       0.013034914    10.766019      722.64244     -61.98375       660.65869    
    278000   300.45439      0.013034914    7.3485337      745.43562     -64.662241      680.77338    
    279000   300.73339      0.013034914    2.0814312      746.12784     -66.51756       679.61028    
    280000   302.36845      0.013034914    6.4606515      750.18445     -65.579641      684.60481    
    281000   299.54997      0.013034914    17.058707      743.19174     -65.065451      678.12628    
    282000   297.18903      0.013034914    3.8390308      737.33418     -70.612503      666.72167    
    283000   281.30611      0.013034914   -4.0845167      697.92822     -69.683665      628.24455    
    284000   306.60901      0.013034914    8.8653561      760.70541     -67.667953      693.03745    
    285000   301.45628      0.013034914    7.1893317      747.92134     -66.966109      680.95523    
    286000   307.9023       0.013034914    7.0883906      763.9141      -69.902167      694.01193    
    287000   295.20704      0.013034914    6.7057201      732.4168      -63.335481      669.08132    
    288000   315.00302      0.013034914    10.186795      781.53118     -64.172233      717.35895    
    289000   301.75011      0.013034914    9.8734289      748.65033     -66.661869      681.98846    
    290000   297.10627      0.013034914    11.411221      737.12885     -64.621561      672.50729    
    291000   299.921        0.013034914    3.5290323      744.11228     -66.980398      677.13188    
    292000   305.53475      0.013034914   -3.8984112      758.04014     -63.262268      694.77787    
    293000   302.00775      0.013034914    9.1184764      749.28955     -64.827613      684.46194    
    294000   277.50062      0.013034914    18.327159      688.48668     -62.549662      625.93702    
    295000   307.20421      0.013034914    3.115479       762.18211     -68.966819      693.21529    
    296000   305.09335      0.013034914    6.836763       756.94502     -69.760993      687.18403    
    297000   292.88912      0.013034914    7.3752487      726.66598     -62.629754      664.03623    
    298000   301.39469      0.013034914    8.9230106      747.76854     -66.212541      681.556      
    299000   294.26547      0.013034914    5.82613        730.08074     -70.505006      659.57574    
    300000   299.14932      0.013034914    5.1902726      742.19772     -71.326807      670.87091    
    301000   302.0277       0.013034914    14.307731      749.33906     -66.242703      683.09635    
    302000   301.5392       0.013034914    7.7046983      748.12708     -63.652376      684.4747     
    303000   299.46506      0.013034914    4.8711316      742.98107     -63.338571      679.6425     
    304000   311.91365      0.013034914    2.4068554      773.86636     -57.870061      715.9963     
    305000   304.00583      0.013034914    10.925354      754.24685     -57.378713      696.86813    
    306000   306.65235      0.013034914    9.425312       760.81292     -62.475544      698.33738    
    307000   287.31721      0.013034914    5.1266919      712.84191     -57.827151      655.01476    
    308000   302.81805      0.013034914    6.0414828      751.29994     -60.228966      691.07097    
    309000   308.91383      0.013034914    7.1259256      766.42372     -65.832744      700.59098    
    310000   310.02703      0.013034914    7.1734235      769.18561     -60.532779      708.65283    
    311000   290.65942      0.013034914    6.1806353      721.13404     -64.472812      656.66123    
    312000   294.61574      0.013034914    6.1230921      730.94977     -60.595778      670.35399    
    313000   325.08164      0.013034914    7.2127844      806.53652     -64.7193        741.81722    
    314000   289.24438      0.013034914    7.5576626      717.62328     -56.998384      660.6249     
    315000   298.36465      0.013034914    6.5839323      740.25092     -63.011127      677.23979    
    316000   296.39619      0.013034914    6.6082215      735.36713     -64.906612      670.46051    
    317000   305.61153      0.013034914    7.1790505      758.23062     -62.334521      695.8961     
    318000   296.60984      0.013034914    6.6406228      735.89719     -61.09647       674.80072    
    319000   285.37847      0.013034914    6.3045288      708.03184     -63.493665      644.53818    
    320000   290.96321      0.013034914    7.3447481      721.88773     -61.763682      660.12405    
    321000   306.82182      0.013034914    6.9644713      761.2334      -60.210721      701.02268    
    322000   307.251        0.013034914    5.6126785      762.29819     -58.942799      703.35539    
    323000   287.89932      0.013034914    6.125366       714.28616     -63.931897      650.35426    
    324000   291.29914      0.013034914    8.0511418      722.72119     -56.35238       666.36881    
    325000   319.97035      0.013034914    10.290363      793.85527     -54.521508      739.33376    
    326000   299.43765      0.013034914    7.5374995      742.91306     -57.801725      685.11133    
    327000   288.46162      0.013034914    9.6047899      715.68124     -56.587773      659.09346    
    328000   298.37443      0.013034914    6.479814       740.27517     -57.852602      682.42257    
    329000   308.87683      0.013034914    6.8098105      766.33194     -60.804227      705.52771    
    330000   297.2039       0.013034914    7.5245673      737.37107     -54.12151       683.24956    
    331000   290.47619      0.013034914    4.3150574      720.67944     -55.160457      665.51898    
    332000   312.94018      0.013034914    6.2905636      776.41322     -47.43221       728.98101    
    333000   311.73005      0.013034914    8.2331781      773.41085     -49.745401      723.66545    
    334000   292.6063       0.013034914    7.4213214      725.96429     -49.430516      676.53378    
    335000   286.26501      0.013034914    7.346938       710.23137     -45.18791       665.04346    
    336000   306.78664      0.013034914    8.251446       761.14611     -47.254171      713.89194    
    337000   302.74663      0.013034914    9.2742927      751.12274     -49.555541      701.5672     
    338000   302.91638      0.013034914    4.6209924      751.54388     -46.73514       704.80874    
    339000   301.87455      0.013034914    5.3106107      748.95907     -50.967046      697.99203    
    340000   294.5055       0.013034914    8.7527812      730.67627     -53.005641      677.67063    
    341000   298.64813      0.013034914    7.504102       740.95425     -51.860578      689.09367    
    342000   305.21496      0.013034914    3.4028139      757.24674     -54.559002      702.68774    
    343000   301.56757      0.013034914    5.7799709      748.19744     -55.436845      692.7606     
    344000   299.84884      0.013034914    10.050669      743.93324     -50.271531      693.66171    
    345000   301.78044      0.013034914    6.415293       748.7256      -53.482639      695.24296    
    346000   297.40399      0.013034914    6.3600623      737.86749     -51.242878      686.62461    
    347000   307.15228      0.013034914    9.9141981      762.05327     -52.342538      709.71073    
    348000   306.32368      0.013034914    5.6329595      759.99748     -50.548869      709.44862    
    349000   293.90438      0.013034914    6.8099844      729.18488     -48.68685       680.49803    
    350000   300.61582      0.013034914    8.2450414      745.83614     -52.410304      693.42584    
    351000   302.39922      0.013034914    5.9831949      750.26081     -54.797186      695.46363    
    352000   298.1413       0.013034914    5.9736808      739.69677     -57.654091      682.04268    
    353000   304.46469      0.013034914    7.7375334      755.38529     -53.712102      701.67319    
    354000   299.22684      0.013034914    6.516466       742.39005     -52.305953      690.08409    
    355000   293.25425      0.013034914    5.0002851      727.57188     -51.495225      676.07665    
    356000   304.69466      0.013034914    6.989533       755.95586     -47.940682      708.01517    
    357000   311.7214       0.013034914    7.6669285      773.38938     -47.298939      726.09044    
    358000   297.28235      0.013034914    6.1019055      737.5657      -46.450296      691.11541    
    359000   288.52608      0.013034914    6.9078929      715.84116     -44.632607      671.20855    
    360000   303.24927      0.013034914    5.3004158      752.3698      -44.657411      707.71239    
    361000   327.78611      0.013034914    11.471359      813.24636     -43.949737      769.29662    
    362000   297.4493       0.013034914    7.5967976      737.97991     -42.727212      695.2527     
    363000   292.22041      0.013034914    6.6326082      725.00688     -47.23937       677.76751    
    364000   301.25368      0.013034914    5.0679144      747.41869     -50.632059      696.78663    
    365000   308.85222      0.013034914    8.8985862      766.27088     -54.935691      711.33519    
    366000   291.44639      0.013034914    7.4382659      723.08654     -47.647093      675.43944    
    367000   287.57576      0.013034914    7.5332949      713.48338     -44.418225      669.06515    
    368000   312.12014      0.013034914    5.6176615      774.37867     -45.748556      728.63012    
    369000   296.37805      0.013034914    5.925212       735.32212     -47.764917      687.5572     
    370000   294.86551      0.013034914    6.244798       731.56946     -47.515072      684.05439    
    371000   295.5624       0.013034914    7.2179057      733.29847     -44.768387      688.53008    
    372000   293.05051      0.013034914    6.8687109      727.0664      -39.685802      687.38059    
    373000   302.91416      0.013034914    5.5864556      751.53837     -38.084215      713.45416    
    374000   300.09612      0.013034914    6.5017417      744.54675     -37.79287       706.75388    
    375000   308.65005      0.013034914    9.0495524      765.76927     -37.996063      727.77321    
    376000   294.6478       0.013034914    5.5358895      731.02932     -35.704341      695.32498    
    377000   290.92505      0.013034914    4.6899098      721.79307     -39.622577      682.17049    
    378000   305.5695       0.013034914    7.6191799      758.12634     -43.932165      714.19418    
    379000   310.33063      0.013034914    5.331983       769.93885     -39.584036      730.35482    
    380000   283.42797      0.013034914    6.2927044      703.19261     -35.924368      667.26824    
    381000   301.0621       0.013034914    8.2555978      746.94336     -37.87469       709.06867    
    382000   308.68631      0.013034914    6.4836646      765.85925     -37.850649      728.0086     
    383000   288.01133      0.013034914    5.0117307      714.56404     -40.161956      674.40208    
    384000   305.04712      0.013034914    6.7353126      756.83032     -37.698437      719.13188    
    385000   297.10977      0.013034914    7.4315735      737.13754     -38.90538       698.23216    
    386000   302.82202      0.013034914    8.1880643      751.30978     -34.664876      716.6449     
    387000   295.14889      0.013034914    4.9179349      732.27254     -37.527857      694.74468    
    388000   296.68559      0.013034914    6.0100756      736.08512     -35.525158      700.55997    
    389000   298.90879      0.013034914    8.408931       741.60094     -33.418214      708.18272    
    390000   297.06679      0.013034914    8.8059175      737.03088     -38.376297      698.65459    
    391000   315.18148      0.013034914    7.2874561      781.97394     -35.590725      746.38321    
    392000   302.19704      0.013034914    6.6727595      749.75919     -33.604253      716.15494    
    393000   297.79344      0.013034914    6.9260426      738.83373     -32.196089      706.63765    
    394000   288.115        0.013034914    8.7314752      714.82126     -31.280644      683.54062    
    395000   300.51779      0.013034914    6.4703149      745.59292     -31.05116       714.54176    
    396000   298.45703      0.013034914    5.4946862      740.48011     -30.961345      709.51877    
    397000   303.75014      0.013034914    7.4588516      753.61246     -34.58318       719.02928    
    398000   305.76187      0.013034914    10.616434      758.60362     -34.70293       723.90069    
    399000   296.68183      0.013034914    2.6882476      736.0758      -35.770973      700.30483    
    400000   298.71682      0.013034914    10.838471      741.12467     -34.469812      706.65485    
    401000   300.7675       0.013034914    10.020715      746.21245     -32.781665      713.43078    
    402000   298.42883      0.013034914    7.9026818      740.41015     -30.426968      709.98319    
    403000   294.15684      0.013034914    5.1352754      729.81123     -31.991943      697.81929    
    404000   296.19359      0.013034914    9.8454719      734.86447     -33.516822      701.34765    
    405000   309.60343      0.013034914    8.2851953      768.13464     -34.172118      733.96252    
    406000   296.28784      0.013034914    1.2420081      735.0983      -32.41325       702.68505    
    407000   290.05418      0.013034914    7.9947425      719.63241     -35.909194      683.72322    
    408000   295.81955      0.013034914    9.9556658      733.93646     -38.033092      695.90337    
    409000   313.25166      0.013034914    7.2794309      777.186       -35.125431      742.06057    
    410000   296.27207      0.013034914    5.7066348      735.05918     -34.475726      700.58346    
    411000   292.01383      0.013034914    7.4290547      724.49437     -35.454506      689.03987    
    412000   301.74438      0.013034914    12.712024      748.63612     -30.4622        718.17392    
    413000   319.22296      0.013034914    5.3506564      792.00097     -27.322443      764.67852    
    414000   322.02015      0.013034914    5.9856713      798.94088     -26.950623      771.99025    
    415000   289.64978      0.013034914    6.5176069      718.62909     -31.859227      686.76986    
    416000   297.19161      0.013034914    8.1061925      737.34058     -32.640953      704.69963    
    417000   296.05669      0.013034914    6.7763697      734.52481     -31.088449      703.43637    
    418000   302.80669      0.013034914    3.7130498      751.27175     -33.073404      718.19834    
    419000   298.43357      0.013034914    6.6129434      740.42192     -35.402757      705.01916    
    420000   310.46035      0.013034914    6.6025803      770.2607      -34.438476      735.82222    
    421000   298.46963      0.013034914    6.6835068      740.51139     -35.691787      704.8196     
    422000   290.96782      0.013034914    8.763401       721.89918     -35.665925      686.23326    
    423000   306.69219      0.013034914    7.6572165      760.91178     -34.316476      726.5953     
    424000   299.67172      0.013034914    4.2554817      743.49379     -30.340317      713.15347    
    425000   292.12166      0.013034914    3.3916089      724.76189     -33.599541      691.16235    
    426000   298.42338      0.013034914    4.186708       740.39662     -31.149108      709.24751    
    427000   296.41861      0.013034914    9.3723951      735.42274     -28.265535      707.1572     
    428000   307.59177      0.013034914    6.1177689      763.14366     -29.136184      734.00748    
    429000   297.45703      0.013034914    6.6486773      737.99908     -30.977302      707.02178    
    430000   294.92896      0.013034914    9.2581941      731.72689     -30.941312      700.78557    
    431000   300.14088      0.013034914    8.746875       744.65781     -35.253691      709.40412    
    432000   314.29656      0.013034914    1.0379214      779.77842     -34.208219      745.5702     
    433000   294.19099      0.013034914    8.1400255      729.89597     -32.629008      697.26696    
    434000   311.87763      0.013034914    7.5939627      773.77699     -34.836451      738.94054    
    435000   303.55235      0.013034914    5.1195458      753.12175     -31.632679      721.48907    
    436000   290.33866      0.013034914    7.2208574      720.33823     -28.524944      691.81329    
    437000   295.69034      0.013034914    8.2383389      733.61589     -30.072121      703.54377    
    438000   307.84476      0.013034914    7.7286083      763.77134     -32.495796      731.27554    
    439000   292.61016      0.013034914    5.7635119      725.97388     -29.918623      696.05526    
    440000   306.56803      0.013034914    7.1868736      760.60374     -33.278357      727.32538    
    441000   308.53185      0.013034914    7.5413639      765.47604     -30.055769      735.42027    
    442000   297.77094      0.013034914    5.8009914      738.77791     -29.684917      709.09299    
    443000   307.6331       0.013034914    7.8749288      763.24619     -30.005722      733.24047    
    444000   309.22348      0.013034914    8.2757409      767.19198     -32.249363      734.94262    
    445000   301.8871       0.013034914    3.6569472      748.99021     -29.453685      719.53653    
    446000   298.39977      0.013034914    6.1940399      740.33806     -28.374147      711.96391    
    447000   302.35772      0.013034914    8.1203702      750.15785     -27.353304      722.80454    
    448000   302.8535       0.013034914    15.368155      751.38788     -25.735834      725.65205    
    449000   300.79904      0.013034914    5.8096967      746.2907      -28.758461      717.53224    
    450000   307.68564      0.013034914    5.6405067      763.37655     -26.524239      736.85231    
    451000   293.4466       0.013034914    13.405974      728.04911     -22.917386      705.13173    
    452000   283.61092      0.013034914    20.60557       703.64651     -23.355126      680.29139    
    453000   297.00691      0.013034914    5.9415112      736.88233     -26.619661      710.26267    
    454000   282.77534      0.013034914   -0.0098426246   701.57342     -24.848482      676.72494    
    455000   302.95177      0.013034914    11.735147      751.63168     -26.716024      724.91566    
    456000   316.40525      0.013034914    7.4675791      785.01014     -26.756166      758.25397    
    457000   297.35369      0.013034914    4.544429       737.7427      -25.815167      711.92753    
    458000   293.80229      0.013034914    4.4992642      728.93159     -24.264184      704.6674     
    459000   293.31978      0.013034914    12.945249      727.73447     -26.657074      701.0774     
    460000   312.47314      0.013034914    9.2899187      775.25448     -28.866993      746.38749    
    461000   302.73748      0.013034914   -2.7048849      751.10003     -24.33776       726.76227    
    462000   278.48734      0.013034914   -3.1879563      690.93477     -28.965162      661.96961    
    463000   293.8759       0.013034914    8.8557248      729.1142      -28.758454      700.35575    
    464000   303.86556      0.013034914    7.1758687      753.89884     -25.812336      728.0865     
    465000   299.06383      0.013034914    7.9873846      741.9856      -30.957217      711.02838    
    466000   305.07119      0.013034914    5.3172881      756.89004     -30.436424      726.45362    
    467000   297.97859      0.013034914   -2.5762758      739.2931      -30.091692      709.20141    
    468000   297.97809      0.013034914    8.7750215      739.29186     -24.478791      714.81307    
    469000   302.04357      0.013034914    8.5451491      749.37842     -27.178914      722.1995     
    470000   303.68798      0.013034914    3.3093744      753.45825     -25.088887      728.36936    
    471000   291.1047       0.013034914    5.9090367      722.23879     -28.814274      693.42451    
    472000   284.41419      0.013034914    5.0893195      705.63944     -29.643404      675.99603    
    473000   303.74895      0.013034914    10.658106      753.60951     -25.247269      728.36224    
    474000   313.75238      0.013034914    7.9303449      778.42831     -25.153442      753.27487    
    475000   299.61105      0.013034914    5.5081655      743.34326     -27.090695      716.25257    
    476000   296.68501      0.013034914    5.2333226      736.08368     -21.939946      714.14373    
    477000   294.80477      0.013034914    7.4689896      731.41876     -26.401963      705.0168     
    478000   292.4665       0.013034914    8.9432295      725.61744     -30.504264      695.11317    
    479000   295.92263      0.013034914    6.966716       734.19221     -30.422889      703.76932    
    480000   301.30944      0.013034914    6.3543917      747.55704     -26.44478       721.11226    
    481000   297.99651      0.013034914    8.0477839      739.33755     -31.447293      707.89025    
    482000   297.42708      0.013034914    6.7634384      737.92478     -23.562407      714.36238    
    483000   290.8671       0.013034914    5.4013714      721.64929     -23.617089      698.0322     
    484000   294.18798      0.013034914    6.478732       729.88849     -20.347831      709.54066    
    485000   293.73326      0.013034914    5.7583404      728.76032     -22.607886      706.15244    
    486000   298.7499       0.013034914    6.7497127      741.20674     -26.561841      714.6449     
    487000   300.56158      0.013034914    7.904143       745.70156     -25.944337      719.75722    
    488000   306.11748      0.013034914    12.27497       759.48591     -26.004331      733.48158    
    489000   297.82768      0.013034914    5.9560882      738.91869     -28.432236      710.48646    
    490000   297.3748       0.013034914    3.8759369      737.79509     -24.083281      713.71181    
    491000   311.18662      0.013034914    10.62142       772.06259     -28.355323      743.70727    
    492000   292.26591      0.013034914    11.764101      725.11978     -29.391319      695.72846    
    493000   286.48594      0.013034914    3.0219493      710.7795      -24.933352      685.84615    
    494000   289.40277      0.013034914    1.756469       718.01625     -25.013196      693.00306    
    495000   314.04283      0.013034914    10.860748      779.14891     -26.713869      752.43504    
    496000   295.91017      0.013034914    8.4665093      734.1613      -24.510408      709.65089    
    497000   297.24111      0.013034914   -4.1510479      737.46339     -25.027562      712.43582    
    498000   304.86496      0.013034914    3.9140779      756.37837     -21.13643       735.24194    
    499000   306.9707       0.013034914    8.0316133      761.60276     -22.655635      738.94713    
    500000   294.55756      0.013034914    10.367161      730.80542     -24.130378      706.67505    
    501000   287.68011      0.013034914    5.4847448      713.74227     -26.61365       687.12862    
    502000   298.77998      0.013034914    7.3274448      741.28137     -29.088877      712.19249    
    503000   303.70302      0.013034914    5.4499204      753.49555     -24.751776      728.74378    
    504000   310.3849       0.013034914    1.565047       770.07349     -24.861745      745.21174    
    505000   303.70792      0.013034914    8.0184145      753.50772     -26.017617      727.4901     
    506000   286.66826      0.013034914    9.117035       711.23187     -26.438773      684.79309    
    507000   305.88449      0.013034914    4.1616738      758.90786     -27.135521      731.77234    
    508000   321.98123      0.013034914    4.1867565      798.84431     -23.784727      775.05958    
    509000   295.61983      0.013034914    11.270756      733.44095     -27.077449      706.3635     
    510000   288.39914      0.013034914    6.6161633      715.5262      -22.892898      692.63331    
    511000   301.66358      0.013034914    4.9036544      748.43567     -24.797982      723.63769    
    512000   297.24316      0.013034914    15.129974      737.46848     -21.400966      716.06751    
    513000   305.68225      0.013034914    6.0711682      758.40609     -22.649162      735.75693    
    514000   293.2429       0.013034914    5.6789842      727.54371     -23.225185      704.31853    
    515000   304.24358      0.013034914    6.1879345      754.83671     -22.16235       732.67436    
    516000   316.61724      0.013034914    8.4361977      785.53611     -19.552305      765.98381    
    517000   297.93668      0.013034914    6.9068399      739.18912     -21.912744      717.27637    
    518000   297.4339       0.013034914    5.9346227      737.94172     -28.5513        709.39042    
    519000   309.92019      0.013034914    8.9401255      768.92054     -27.015779      741.90476    
    520000   295.69116      0.013034914    6.6685557      733.61791     -24.150345      709.46756    
    521000   288.11327      0.013034914    1.3303276      714.81697     -24.857548      689.95942    
    522000   305.18085      0.013034914    7.1705473      757.16209     -22.596086      734.56601    
    523000   307.5891       0.013034914    9.7842887      763.13702     -19.173046      743.96398    
    524000   289.55305      0.013034914    8.164773       718.38911     -22.208613      696.18049    
    525000   291.88459      0.013034914    5.6530886      724.1737      -24.944998      699.2287     
    526000   299.28129      0.013034914    5.2587099      742.52513     -22.160192      720.36494    
    527000   310.85735      0.013034914    6.4392218      771.24565     -20.932433      750.31321    
    528000   300.9064       0.013034914    8.5643572      746.55708     -19.225203      727.33188    
    529000   279.36269      0.013034914    4.3313562      693.10654     -19.127096      673.97944    
    530000   303.27736      0.013034914    6.9766991      752.43948     -25.914782      726.5247     
    531000   304.78093      0.013034914    7.0215503      756.16988     -24.082915      732.08696    
    532000   300.26749      0.013034914    7.4337521      744.97192     -24.945399      720.02652    
    533000   287.87332      0.013034914    4.2998479      714.22165     -24.047237      690.17442    
    534000   304.67246      0.013034914    6.2267016      755.90077     -25.746335      730.15443    
    535000   308.62591      0.013034914    7.6243851      765.7094      -29.2505        736.4589     
    536000   291.74142      0.013034914    6.6633998      723.81851     -25.582106      698.2364     
    537000   287.14928      0.013034914    6.4131762      712.42527     -30.979876      681.4454     
    538000   309.73197      0.013034914    7.8149646      768.45356     -31.677257      736.77631    
    539000   306.95609      0.013034914    5.1402612      761.56653     -26.691888      734.87464    
    540000   291.63785      0.013034914    8.9000982      723.56155     -24.4251        699.13645    
    541000   311.30463      0.013034914    7.3636623      772.35536     -28.685431      743.66993    
    542000   304.68706      0.013034914    6.9614276      755.937       -26.800434      729.13657    
    543000   297.02642      0.013034914    6.7221156      736.93073     -27.512257      709.41847    
    544000   293.45995      0.013034914    8.522283       728.08223     -26.532542      701.54969    
    545000   307.88843      0.013034914    8.77243        763.87967     -26.42972       737.44995    
    546000   304.58894      0.013034914    5.8708741      755.69356     -28.268959      727.4246     
    547000   302.37621      0.013034914    6.6868487      750.20372     -26.341255      723.86247    
    548000   292.1772       0.013034914    9.2951115      724.8997      -19.260508      705.63919    
    549000   294.98393      0.013034914    4.6620129      731.86326     -20.13997       711.72329    
    550000   303.88498      0.013034914    4.0745018      753.94701     -21.294664      732.65234    
    551000   305.24236      0.013034914    7.1263937      757.31471     -21.330953      735.98376    
    552000   315.11568      0.013034914    10.529986      781.81069     -22.072158      759.73853    
    553000   298.77959      0.013034914    3.6082416      741.28039     -21.158486      720.1219     
    554000   295.53732      0.013034914    5.5731666      733.23625     -22.290773      710.94548    
    555000   302.5618       0.013034914    11.52203       750.66416     -19.064362      731.5998     
    556000   307.01522      0.013034914    8.6662771      761.71323     -21.436417      740.27682    
    557000   284.34295      0.013034914    0.69972784     705.4627      -18.43209       687.03061    
    558000   295.89418      0.013034914    7.086501       734.12161     -23.584828      710.53678    
    559000   298.89875      0.013034914    15.860838      741.57604     -26.11615       715.45989    
    560000   295.55514      0.013034914    10.570613      733.28045     -27.974662      705.30579    
    561000   308.32695      0.013034914    1.6581067      764.96767     -31.834699      733.13297    
    562000   305.17848      0.013034914   -2.2102518      757.15623     -23.855274      733.30095    
    563000   296.64442      0.013034914    6.8687335      735.98299     -25.349139      710.63385    
    564000   302.29504      0.013034914    15.302437      750.00233     -24.52472       725.47761    
    565000   301.92515      0.013034914    8.0720197      749.08463     -21.606116      727.47852    
    566000   311.55005      0.013034914    8.1212651      772.96427     -22.78539       750.17888    
    567000   310.41975      0.013034914    2.8125251      770.15995     -24.047373      746.11258    
    568000   297.23417      0.013034914   -8.5471436      737.44618     -24.113822      713.33236    
    569000   297.70013      0.013034914    6.2700497      738.60222     -25.140887      713.46133    
    570000   311.34252      0.013034914    26.945721      772.44937     -23.71997       748.7294     
    571000   302.18011      0.013034914    3.185342       749.71719     -24.724339      724.99285    
    572000   290.43885      0.013034914   -6.2731678      720.5868      -23.698865      696.88793    
    573000   294.20724      0.013034914    11.98311       729.93628     -25.214029      704.72225    
    574000   324.89267      0.013034914    2.3902841      806.06766     -27.37794       778.68972    
    575000   300.54445      0.013034914    3.6093829      745.65906     -24.209948      721.44911    
    576000   296.42493      0.013034914    19.233266      735.43843     -24.88117       710.55726    
    577000   306.46612      0.013034914    4.380287       760.35089     -24.359449      735.99144    
    578000   314.6816       0.013034914    0.0044697432   780.73373     -24.061349      756.67238    
    579000   291.5771       0.013034914    4.8478645      723.41082     -24.676913      698.7339     
    580000   294.21267      0.013034914    6.220425       729.94974     -23.6901        706.25964    
    581000   313.30698      0.013034914    14.834806      777.32324     -23.718229      753.60501    
    582000   293.35822      0.013034914    6.8562908      727.82983     -24.059097      703.77073    
    583000   300.77642      0.013034914    9.1707473      746.23458     -26.699328      719.53525    
    584000   282.53834      0.013034914    6.2308913      700.9854      -25.050793      675.9346     
    585000   303.66509      0.013034914    5.4353922      753.40147     -25.596597      727.80487    
    586000   300.00032      0.013034914    7.8048496      744.30905     -24.613775      719.69528    
    587000   284.31855      0.013034914    9.6734435      705.40215     -21.501955      683.90019    
    588000   288.39747      0.013034914    5.2893152      715.52208     -19.493246      696.02883    
    589000   312.88303      0.013034914    5.9274956      776.27142     -19.470203      756.80122    
    590000   305.36733      0.013034914    9.6357494      757.62478     -23.61641       734.00837    
    591000   285.0179       0.013034914    6.4754754      707.13728     -25.662197      681.47508    
    592000   308.28863      0.013034914    7.1917799      764.87259     -22.714627      742.15796    
    593000   308.33728      0.013034914    7.2981546      764.99329     -18.849836      746.14345    
    594000   287.03983      0.013034914    8.2306582      712.15372     -17.907947      694.24578    
    595000   294.78886      0.013034914    6.3643005      731.37929     -20.546251      710.83304    
    596000   311.16625      0.013034914    7.4293741      772.01205     -19.55406       752.45799    
    597000   293.03711      0.013034914    6.8789535      727.03315     -18.5028        708.53035    
    598000   291.44915      0.013034914    7.6535991      723.09337     -19.58862       703.50475    
    599000   316.79546      0.013034914    9.3200828      785.97828     -19.820008      766.15827    
    600000   307.94965      0.013034914    5.1954822      764.03157     -19.056438      744.97513    
    601000   283.99158      0.013034914    6.2205751      704.59093     -13.92208       690.66885    
    602000   287.95822      0.013034914    9.7839036      714.43229     -16.495164      697.93713    
    603000   292.85712      0.013034914    8.7001015      726.58659     -21.236973      705.34962    
    604000   319.33719      0.013034914    8.2045035      792.28437     -21.432119      770.85225    
    605000   299.42233      0.013034914    5.843342       742.87506     -20.967942      721.90712    
    606000   288.93216      0.013034914    3.7490656      716.84865     -20.379344      696.46931    
    607000   289.33519      0.013034914    7.2798229      717.84859     -23.373529      694.47506    
    608000   323.0363       0.013034914    8.3571082      801.46195     -23.710238      777.75171    
    609000   305.37542      0.013034914    6.7131051      757.64483     -24.822374      732.82245    
    610000   285.21227      0.013034914    7.0133351      707.61951     -26.938488      680.68102    
    611000   299.87674      0.013034914    8.5002795      744.00247     -27.888732      716.11373    
    612000   313.78016      0.013034914    7.3643254      778.49722     -25.496233      753.00099    
    613000   307.1279       0.013034914    7.7091765      761.99278     -21.368982      740.6238     
    614000   293.71868      0.013034914    8.1918797      728.72413     -23.012764      705.71137    
    615000   295.18648      0.013034914    7.007276       732.3658      -23.84368       708.52212    
    616000   294.17903      0.013034914    3.1233854      729.86628     -22.669189      707.19709    
    617000   308.05246      0.013034914    6.3105143      764.28664     -23.203529      741.08311    
    618000   295.1693       0.013034914    7.4441102      732.32317     -25.431205      706.89196    
    619000   297.99609      0.013034914    7.9663403      739.33652     -22.945727      716.39079    
    620000   309.19206      0.013034914    5.0973394      767.11402     -21.801675      745.31235    
    621000   303.29813      0.013034914    5.8683741      752.49101     -21.85187       730.63914    
    622000   302.84237      0.013034914    8.1751491      751.36028     -22.10733       729.25295    
    623000   300.92459      0.013034914    7.3011422      746.60219     -26.181382      720.42081    
    624000   296.55862      0.013034914    4.4056316      735.77011     -27.496431      708.27368    
    625000   302.43479      0.013034914    3.2447647      750.34905     -27.545794      722.80326    
    626000   310.05384      0.013034914    11.746429      769.25211     -26.596339      742.65578    
    627000   297.51097      0.013034914    10.292943      738.13291     -29.308335      708.82457    
    628000   273.44401      0.013034914    4.9597543      678.42211     -29.07363       649.34848    
    629000   301.14475      0.013034914    3.1989802      747.14841     -26.639794      720.50862    
    630000   316.89794      0.013034914    6.4515301      786.23253     -25.961156      760.27138    
    631000   301.13739      0.013034914    9.4444916      747.13016     -22.300312      724.82985    
    632000   282.3888       0.013034914    5.5427447      700.6144      -20.616964      679.99744    
    633000   304.81867      0.013034914    5.2177748      756.26353     -19.682773      736.58075    
    634000   308.19701      0.013034914    10.008743      764.64528     -21.439774      743.2055     
    635000   300.34313      0.013034914    7.7955078      745.15958     -22.721874      722.43771    
    636000   289.93554      0.013034914    6.1622372      719.33807     -26.918075      692.42       
    637000   305.76869      0.013034914    6.8048214      758.62056     -30.312867      728.30769    
    638000   298.17144      0.013034914    9.1557295      739.77157     -28.936608      710.83496    
    639000   294.11906      0.013034914    5.4288933      729.71749     -31.277392      698.4401     
    640000   307.56944      0.013034914    3.49914        763.08827     -24.900816      738.18745    
    641000   308.29235      0.013034914    10.484254      764.88183     -23.206073      741.67576    
    642000   309.54029      0.013034914    10.667926      767.97799     -24.601525      743.37647    
    643000   292.36772      0.013034914    2.0845049      725.37238     -23.282083      702.0903     
    644000   302.48454      0.013034914    6.4645369      750.47247     -26.993433      723.47904    
    645000   295.56221      0.013034914    7.0351045      733.29798     -23.786003      709.51198    
    646000   316.58734      0.013034914    12.156874      785.46191     -26.771533      758.69038    
    647000   300.56439      0.013034914    10.390822      745.70853     -28.370535      717.338      
    648000   291.11584      0.013034914    6.7009292      722.26643     -27.115208      695.15122    
    649000   294.97553      0.013034914    5.2426021      731.84242     -26.541286      705.30114    
    650000   307.88489      0.013034914    11.507515      763.8709      -24.63703       739.23387    
    651000   301.55377      0.013034914    11.174764      748.16321     -26.305494      721.85772    
    652000   281.28554      0.013034914    4.8959702      697.87719     -23.077275      674.79991    
    653000   310.62077      0.013034914    6.6650568      770.6587      -22.97705       747.68165    
    654000   308.88204      0.013034914    9.6300391      766.34485     -22.746082      743.59877    
    655000   292.82574      0.013034914    7.0761641      726.50873     -25.956049      700.55268    
    656000   282.9343       0.013034914    5.2305787      701.9678      -25.944384      676.02341    
    657000   304.99256      0.013034914    6.740258       756.69495     -24.451083      732.24387    
    658000   308.94306      0.013034914    6.417177       766.49625     -19.791544      746.7047     
    659000   301.05473      0.013034914    6.6055337      746.92508     -19.618311      727.30677    
    660000   306.33955      0.013034914    6.6069044      760.03687     -21.320972      738.7159     
    661000   289.17375      0.013034914    8.6124987      717.44804     -22.411311      695.03673    
    662000   295.1516       0.013034914    7.1645302      732.27924     -21.005004      711.27424    
    663000   302.26493      0.013034914    5.3314499      749.92763     -26.456385      723.47125    
    664000   299.84745      0.013034914    4.3042473      743.92979     -25.942837      717.98695    
    665000   297.08182      0.013034914    10.07193       737.06819     -25.079952      711.98823    
    666000   301.08935      0.013034914    8.4477157      747.01099     -25.304343      721.70665    
    667000   283.09093      0.013034914    5.5175587      702.35639     -25.098472      677.25792    
    668000   306.05028      0.013034914    8.6248667      759.31917     -26.522244      732.79693    
    669000   304.70256      0.013034914    7.9542052      755.97546     -31.74464       724.23082    
    670000   288.54163      0.013034914    5.1687277      715.87975     -30.340491      685.53926    
    671000   308.27736      0.013034914    3.0883287      764.84464     -30.154376      734.69026    
    672000   296.64681      0.013034914    9.1482928      735.9889      -29.278549      706.71036    
    673000   302.92269      0.013034914    7.3605841      751.55954     -27.854775      723.70476    
    674000   316.11391      0.013034914    6.9049403      784.28734     -30.598511      753.68882    
    675000   304.96293      0.013034914    9.189632       756.62145     -32.816273      723.80518    
    676000   292.35558      0.013034914    7.8075957      725.34225     -29.598646      695.7436     
    677000   301.69892      0.013034914    5.8932615      748.52333     -31.348583      717.17475    
    678000   324.18872      0.013034914    7.1124002      804.32114     -32.225571      772.09557    
    679000   305.70504      0.013034914    7.2543807      758.46263     -28.704366      729.75826    
    680000   291.17076      0.013034914    8.8239209      722.40267     -28.011449      694.39123    
    681000   304.78248      0.013034914    6.114607       756.17373     -22.425557      733.74817    
    682000   309.62108      0.013034914    5.5705809      768.17844     -30.101721      738.07672    
    683000   303.25369      0.013034914    7.331118       752.38076     -30.115763      722.26499    
    684000   292.85442      0.013034914    8.482763       726.57989     -29.809013      696.77088    
    685000   300.6103       0.013034914    7.002532       745.82243     -28.06599       717.75644    
    686000   303.53005      0.013034914    9.2913196      753.06641     -30.569474      722.49694    
    687000   302.16667      0.013034914    5.6144888      749.68384     -35.41762       714.26622    
    688000   286.9701       0.013034914    6.4956348      711.98072     -33.289931      678.69079    
    689000   301.98486      0.013034914    7.0276569      749.23277     -32.850612      716.38215    
    690000   309.62455      0.013034914    7.9352135      768.18704     -32.543225      735.64382    
    691000   295.36412      0.013034914    6.955422       732.80651     -35.07443       697.73208    
    692000   294.88526      0.013034914    6.8471392      731.61846     -32.056132      699.56232    
    693000   293.64808      0.013034914    6.3331773      728.54897     -28.626109      699.92286    
    694000   306.43749      0.013034914    5.6662841      760.27985     -29.00359       731.27626    
    695000   295.91423      0.013034914    8.7418939      734.17137     -24.910748      709.26062    
    696000   302.17789      0.013034914    7.6224168      749.71166     -25.957659      723.75401    
    697000   297.9633       0.013034914    6.9617263      739.25517     -26.380789      712.87438    
    698000   303.45844      0.013034914    7.4713181      752.88876     -24.371614      728.51715    
    699000   300.11243      0.013034914    7.034726       744.58722     -23.17344       721.41378    
    700000   294.1319       0.013034914    6.6836153      729.74936     -25.208889      704.54047    
    701000   297.54747      0.013034914    6.9776838      738.22347     -26.425474      711.798      
    702000   297.22993      0.013034914    7.0309909      737.43566     -26.342889      711.09277    
    703000   314.78837      0.013034914    7.7486699      780.99863     -24.384401      756.61422    
    704000   302.95243      0.013034914    8.8872554      751.63332     -20.145334      731.48799    
    705000   291.76418      0.013034914    7.0272577      723.87497     -19.441203      704.43376    
    706000   297.40772      0.013034914    6.0264071      737.87675     -18.060929      719.81583    
    707000   314.77739      0.013034914    5.389179       780.97138     -20.549351      760.42203    
    708000   303.38553      0.013034914    6.8156676      752.70786     -21.470505      731.23736    
    709000   293.47406      0.013034914    7.8853235      728.11724     -22.657647      705.4596     
    710000   302.87617      0.013034914    8.3932356      751.44413     -22.313677      729.13045    
    711000   301.19327      0.013034914    3.8491838      747.26881     -19.222889      728.04592    
    712000   307.43098      0.013034914    4.046329       762.74474     -18.684153      744.06059    
    713000   301.86156      0.013034914    10.723899      748.92685     -17.439683      731.48716    
    714000   295.02998      0.013034914    8.4459822      731.9775      -22.604185      709.37332    
    715000   303.11558      0.013034914    0.51173552     752.03812     -25.800867      726.23725    
    716000   315.33378      0.013034914    5.7159686      782.35179     -24.133766      758.21803    
    717000   298.44955      0.013034914    9.0842012      740.46156     -23.19045       717.27111    
    718000   299.07693      0.013034914    7.4438674      742.01812     -26.441909      715.57621    
    719000   303.64921      0.013034914    3.667998       753.36205     -25.520046      727.84201    
    720000   305.49787      0.013034914    8.9034732      757.94863     -23.094623      734.854      
    721000   309.97893      0.013034914    15.041459      769.06626     -19.550014      749.51625    
    722000   296.77286      0.013034914    6.7218312      736.30165     -23.991153      712.3105     
    723000   287.02742      0.013034914    2.0271609      712.12294     -24.69285       687.43009    
    724000   305.58607      0.013034914    7.1192986      758.16745     -22.819498      735.34795    
[...]
   3823000   312.70554      0.013034914    7.4848258      775.83106     -20.28461       755.54645    
   3824000   311.24572      0.013034914    8.48749        772.2092      -27.310262      744.89894    
   3825000   298.73737      0.013034914    6.4224389      741.17566     -22.411215      718.76444    
   3826000   290.44469      0.013034914    6.2551921      720.60127     -19.03534       701.56593    
   3827000   292.12855      0.013034914    8.5201323      724.77899     -18.777237      706.00175    
   3828000   316.20607      0.013034914    7.1619593      784.51598     -16.764781      767.7512     
   3829000   300.21015      0.013034914    6.1768538      744.82966     -22.217703      722.61196    
   3830000   282.702        0.013034914    8.3430109      701.39146     -23.475887      677.91558    
   3831000   299.01375      0.013034914    7.8907008      741.86135     -18.196118      723.66524    
   3832000   304.73838      0.013034914    7.1226896      756.06431     -20.894872      735.16944    
   3833000   295.33586      0.013034914    6.6628862      732.7364      -21.066246      711.67016    
   3834000   297.58511      0.013034914    6.9848815      738.31685     -21.104472      717.21238    
   3835000   315.65119      0.013034914    8.7736686      783.13931     -19.723734      763.41557    
   3836000   304.94331      0.013034914    5.5201828      756.57276     -20.780781      735.79198    
   3837000   296.33174      0.013034914    5.4679252      735.20722     -20.75019       714.45703    
   3838000   295.02595      0.013034914    7.9906643      731.96753     -22.877527      709.09       
   3839000   313.40557      0.013034914    11.956328      777.56786     -21.36597       756.20189    
   3840000   310.27849      0.013034914    6.8158425      769.80949     -22.152919      747.65657    
   3841000   298.94752      0.013034914    4.2337334      741.69705     -20.797661      720.89939    
   3842000   288.54494      0.013034914    2.1049159      715.88795     -22.125718      693.76223    
   3843000   303.00081      0.013034914    8.1809671      751.75337     -21.080481      730.67288    
   3844000   307.72187      0.013034914    7.5564289      763.46643     -24.861125      738.60531    
   3845000   297.55801      0.013034914    2.6125603      738.24962     -26.2267        712.02292    
   3846000   290.2971       0.013034914    7.120957       720.2351      -27.398594      692.8365     
   3847000   292.46196      0.013034914    11.160546      725.60618     -24.14506       701.46113    
   3848000   311.80037      0.013034914    9.6823971      773.58532     -22.064607      751.52071    
   3849000   306.49524      0.013034914    1.4766292      760.42315     -24.630836      735.79231    
   3850000   287.80666      0.013034914    0.75590573     714.05625     -26.031118      688.02513    
   3851000   300.96448      0.013034914    4.3319932      746.70117     -24.599767      722.1014     
   3852000   299.63103      0.013034914    9.8457551      743.39285     -23.843889      719.54896    
   3853000   298.08503      0.013034914    13.101223      739.55719     -25.930334      713.62685    
   3854000   304.48943      0.013034914   -6.733972       755.44667     -23.546822      731.89984    
   3855000   296.68855      0.013034914    10.523254      736.09248     -21.593523      714.49896    
   3856000   321.30931      0.013034914    21.166842      797.17726     -26.408042      770.76922    
   3857000   303.90924      0.013034914    5.4882106      754.00719     -22.133386      731.8738     
   3858000   287.7068       0.013034914    4.2819274      713.80851     -26.387115      687.42139    
   3859000   281.26175      0.013034914    11.883934      697.81816     -26.804288      671.01387    
   3860000   304.24494      0.013034914    7.5846667      754.84009     -27.102361      727.73773    
   3861000   315.26172      0.013034914    8.6367487      782.17302     -21.858516      760.3145     
   3862000   299.22481      0.013034914    4.823434       742.38499     -25.783192      716.6018     
   3863000   295.45183      0.013034914    4.8449038      733.02412     -22.705387      710.31874    
   3864000   300.35938      0.013034914    10.532427      745.1999      -18.395721      726.80418    
   3865000   305.25892      0.013034914    17.289034      757.35581     -20.179386      737.17642    
   3866000   294.19585      0.013034914    0.58062177     729.90802     -22.587646      707.32038    
   3867000   297.21763      0.013034914    13.531465      737.40512     -26.360039      711.04508    
   3868000   312.20093      0.013034914    10.106848      774.5791      -29.275839      745.30326    
   3869000   313.88724      0.013034914    0.34699939     778.76289     -24.319263      754.44362    
   3870000   290.88174      0.013034914    5.5456627      721.68562     -22.868616      698.81701    
   3871000   308.32386      0.013034914    14.811554      764.96        -26.164811      738.79519    
   3872000   310.86463      0.013034914    7.110183       771.26373     -25.005174      746.25855    
   3873000   297.5951       0.013034914    4.4793349      738.34165     -27.407163      710.93449    
   3874000   284.01094      0.013034914    6.4186488      704.63898     -19.503155      685.13582    
   3875000   307.28956      0.013034914    10.085403      762.39387     -23.865093      738.52877    
   3876000   308.02202      0.013034914    5.7685358      764.21113     -21.733106      742.47803    
   3877000   282.87168      0.013034914    3.2142362      701.81245     -22.23484       679.57761    
   3878000   294.94835      0.013034914    11.896495      731.77498     -24.566755      707.20822    
   3879000   317.85293      0.013034914    7.8441104      788.60187     -22.453117      766.14875    
   3880000   305.9644       0.013034914    0.8927576      759.1061      -28.745246      730.36086    
   3881000   295.04831      0.013034914    6.6664434      732.02298     -31.023006      700.99998    
   3882000   300.74087      0.013034914    6.1331583      746.14639     -29.130703      717.01568    
   3883000   303.27304      0.013034914    7.7801608      752.42878     -25.672242      726.75654    
   3884000   289.90944      0.013034914    6.4755236      719.27332     -26.763044      692.51028    
   3885000   284.21933      0.013034914    6.1362235      705.15599     -25.49989       679.6561     
   3886000   301.01793      0.013034914    6.8652343      746.83379     -27.812785      719.021      
   3887000   311.10004      0.013034914    7.6442157      771.84778     -27.34487       744.50291    
   3888000   298.23222      0.013034914    5.015086       739.92236     -25.441537      714.48083    
   3889000   293.64798      0.013034914    6.5666117      728.54873     -26.456636      702.09209    
   3890000   292.50212      0.013034914    6.7794252      725.70583     -25.987289      699.71854    
   3891000   304.99443      0.013034914    4.8864978      756.6996      -26.147278      730.55232    
   3892000   313.86098      0.013034914    5.149642       778.69775     -26.163543      752.5342     
   3893000   290.81427      0.013034914    8.4118241      721.51822     -25.856447      695.66177    
   3894000   290.78523      0.013034914    7.7790359      721.44616     -22.897553      698.54861    
   3895000   295.96603      0.013034914    4.8552966      734.29987     -20.53942       713.76045    
   3896000   310.30612      0.013034914    7.1559967      769.87805     -21.334753      748.54329    
   3897000   307.04205      0.013034914    5.0442463      761.77978     -19.091404      742.68838    
   3898000   291.78434      0.013034914    7.1951027      723.925       -24.588048      699.33695    
   3899000   306.42548      0.013034914    8.6001339      760.25006     -22.750719      737.49935    
   3900000   310.55443      0.013034914    6.9393784      770.4941      -21.538556      748.95555    
   3901000   302.28576      0.013034914    6.9039479      749.9793      -20.776816      729.20248    
   3902000   293.94893      0.013034914    6.5553553      729.29539     -23.268378      706.02702    
   3903000   290.59569      0.013034914    6.9011101      720.97592     -20.634887      700.34104    
   3904000   316.00085      0.013034914    8.7499269      784.00682     -18.825945      765.18087    
   3905000   308.50037      0.013034914    7.3715083      765.39793     -20.359001      745.03893    
   3906000   280.16975      0.013034914    6.6486006      695.10886     -22.577569      672.53129    
   3907000   293.34093      0.013034914    7.4861054      727.78692     -20.508022      707.2789     
   3908000   303.42279      0.013034914    6.6337272      752.80031     -22.036292      730.76401    
   3909000   305.99842      0.013034914    8.2486026      759.19052     -22.653199      736.53732    
   3910000   287.73327      0.013034914    7.0305374      713.87417     -23.682882      690.19129    
   3911000   296.02043      0.013034914    6.6774262      734.43486     -25.952105      708.48275    
   3912000   309.47924      0.013034914    7.3297818      767.82652     -23.949112      743.87741    
   3913000   309.5736       0.013034914    7.8472878      768.06064     -21.396695      746.66395    
   3914000   304.95958      0.013034914    7.028341       756.61313     -20.064398      736.54873    
   3915000   311.59635      0.013034914    5.7091018      773.07913     -22.749488      750.32965    
   3916000   298.88549      0.013034914    6.6898198      741.54314     -20.702632      720.8405     
   3917000   309.78136      0.013034914    11.009452      768.57609     -21.602711      746.97338    
   3918000   294.38528      0.013034914    6.3527284      730.37799     -22.148259      708.22973    
   3919000   295.10685      0.013034914    6.573737       732.16823     -22.449826      709.71841    
   3920000   306.19967      0.013034914    5.8447355      759.68982     -23.130406      736.55941    
   3921000   301.8775       0.013034914    7.5599394      748.96639     -25.125135      723.84125    
   3922000   291.26936      0.013034914    6.9861361      722.64732     -28.652978      693.99434    
   3923000   292.44347      0.013034914    7.1516721      725.56032     -22.188491      703.37183    
   3924000   315.19911      0.013034914    5.3246323      782.01767     -22.448145      759.56953    
   3925000   308.33805      0.013034914    7.5917956      764.99519     -17.545895      747.4493     
   3926000   306.70467      0.013034914    9.3470568      760.94275     -20.74816       740.19459    
   3927000   286.21594      0.013034914    6.628398       710.10963     -22.855872      687.25376    
   3928000   306.81965      0.013034914    8.481155       761.22802     -22.312519      738.9155     
   3929000   306.44845      0.013034914    10.860942      760.30705     -20.703317      739.60374    
   3930000   299.04842      0.013034914    6.8242864      741.94738     -21.653614      720.29376    
   3931000   296.40924      0.013034914    4.231826       735.39951     -22.884694      712.51481    
   3932000   302.5256       0.013034914    7.8522394      750.57434     -20.7927        729.78164    
   3933000   309.05443      0.013034914    7.6785195      766.77256     -19.737657      747.0349     
   3934000   288.67751      0.013034914    6.7888179      716.21685     -19.925122      696.29173    
   3935000   293.25834      0.013034914    7.1924372      727.58202     -23.234041      704.34798    
   3936000   320.85293      0.013034914    7.7519237      796.04496     -18.571244      777.47372    
   3937000   294.0577       0.013034914    7.4267074      729.56525     -20.282075      709.28317    
   3938000   282.36303      0.013034914    6.3740237      700.55045     -18.615488      681.93496    
   3939000   301.38421      0.013034914    7.4892084      747.74254     -20.82253       726.92001    
   3940000   308.43392      0.013034914    5.1546503      765.23306     -19.180646      746.05242    
   3941000   289.17199      0.013034914    7.0027635      717.44368     -17.180721      700.26296    
   3942000   283.55998      0.013034914    5.3106865      703.52012     -20.787961      682.73216    
   3943000   317.16603      0.013034914    4.1260606      786.89766     -17.856985      769.04067    
   3944000   305.19603      0.013034914    9.7713747      757.19976     -20.070153      737.12961    
   3945000   291.64455      0.013034914    5.7025138      723.57817     -21.3897        702.18847    
   3946000   303.17952      0.013034914    4.8673934      752.19674     -17.385327      734.81142    
   3947000   305.55886      0.013034914    9.3512327      758.09996     -16.923458      741.17651    
   3948000   301.66628      0.013034914    11.348423      748.44234     -20.719926      727.72242    
   3949000   294.6149       0.013034914    9.100878       730.94768     -20.361524      710.58615    
   3950000   304.06547      0.013034914    2.578003       754.39482     -20.902487      733.49233    
   3951000   307.85223      0.013034914    8.3012637      763.78986     -22.600552      741.18931    
   3952000   303.88403      0.013034914    8.3232337      753.94464     -20.361629      733.58301    
   3953000   305.55944      0.013034914    8.8386527      758.1014      -20.403747      737.69765    
   3954000   286.85639      0.013034914    7.0366182      711.69862     -19.794337      691.90428    
   3955000   301.83152      0.013034914    6.3043747      748.85231     -21.080952      727.77136    
   3956000   315.89641      0.013034914    7.4379126      783.74769     -25.455238      758.29245    
   3957000   303.07394      0.013034914    11.650616      751.93479     -18.09637       733.83842    
   3958000   296.26836      0.013034914    7.7667265      735.04997     -20.552815      714.49715    
   3959000   288.39599      0.013034914   -1.6964449      715.5184      -20.444777      695.07363    
   3960000   311.40231      0.013034914    12.901127      772.59771     -18.550847      754.04686    
   3961000   297.95696      0.013034914    9.1972628      739.23943     -22.427145      716.81229    
   3962000   294.83632      0.013034914    2.1261492      731.49704     -24.031863      707.46518    
   3963000   305.75556      0.013034914    4.2169593      758.58798     -28.164967      730.42301    
   3964000   308.32422      0.013034914    11.968329      764.9609      -25.298486      739.66241    
   3965000   303.70601      0.013034914    12.962895      753.50297     -18.831272      734.6717     
   3966000   294.20115      0.013034914    3.361216       729.92117     -21.984624      707.93654    
   3967000   303.34002      0.013034914    4.0191018      752.59496     -21.93629       730.65867    
   3968000   312.35545      0.013034914    15.329369      774.96249     -20.536271      754.42622    
   3969000   294.63505      0.013034914    8.4386362      730.99768     -20.407298      710.59038    
   3970000   299.14754      0.013034914    4.7513098      742.19329     -22.517853      719.67544    
   3971000   307.53012      0.013034914    7.8267618      762.9907      -27.108064      735.88264    
   3972000   299.67498      0.013034914    10.42563       743.50188     -22.844763      720.65711    
   3973000   298.96463      0.013034914    2.1742579      741.73949     -22.581682      719.1578     
   3974000   311.10381      0.013034914    6.1205168      771.85712     -20.85691       751.00021    
   3975000   297.90267      0.013034914    8.416019       739.10473     -20.090534      719.0142     
   3976000   297.43299      0.013034914    9.8894242      737.93944     -20.303762      717.63568    
   3977000   301.95886      0.013034914    8.0037088      749.16825     -18.787701      730.38055    
   3978000   293.37623      0.013034914    4.8153629      727.87451     -20.520105      707.3544     
   3979000   311.33967      0.013034914    6.3979733      772.44231     -21.203417      751.23889    
   3980000   297.30705      0.013034914    10.312601      737.627       -18.977669      718.64933    
   3981000   291.34814      0.013034914    1.8249991      722.84278     -21.521765      701.32101    
   3982000   310.17041      0.013034914   -0.7344331      769.54133     -20.9296        748.61173    
   3983000   296.17496      0.013034914    12.408526      734.81823     -21.331334      713.4869     
   3984000   289.70101      0.013034914    7.2219739      718.75618     -24.198409      694.55777    
   3985000   300.26772      0.013034914    1.0908717      744.97248     -22.384578      722.5879     
   3986000   318.04496      0.013034914    7.1561293      789.07832     -16.935585      772.14274    
   3987000   303.56465      0.013034914    10.76349       753.15227     -19.424193      733.72808    
   3988000   298.15411      0.013034914    13.171184      739.72855     -18.447882      721.28067    
   3989000   297.92678      0.013034914    5.7045009      739.16456     -16.662052      722.50251    
   3990000   304.77172      0.013034914    0.45776078     756.14704     -19.255758      736.89129    
   3991000   306.22133      0.013034914    8.8329962      759.74355     -18.348756      741.3948     
   3992000   299.79675      0.013034914    9.1888812      743.80399     -16.141598      727.66239    
   3993000   304.75002      0.013034914    9.4721602      756.09319     -16.138916      739.95428    
   3994000   296.2867       0.013034914    5.4871847      735.09546     -17.900934      717.19452    
   3995000   284.87815      0.013034914    6.0819652      706.79053     -17.398855      689.39168    
   3996000   296.86532      0.013034914    7.3165863      736.53105     -15.86239       720.66866    
   3997000   311.86329      0.013034914    7.8733253      773.74141     -19.325906      754.4155     
   3998000   292.67788      0.013034914    5.3386588      726.14188     -21.068534      705.07335    
   3999000   303.60221      0.013034914    8.7270113      753.24545     -20.995769      732.24968    
   4000000   291.94855      0.013034914    7.1589852      724.3324      -18.753001      705.5794     
Loop time of 7942.31 on 1 procs for 4000000 steps with 1500 atoms

Performance: 10.878 ns/day, 2.206 hours/ns, 503.632 timesteps/s, 755.447 katom-step/s
100.0% CPU use with 1 MPI tasks x 1 OpenMP threads

MPI task timing breakdown:
Section |  min time  |  avg time  |  max time  |%varavg| %total
---------------------------------------------------------------
Pair    | 802.31     | 802.31     | 802.31     |   0.0 | 10.10
Bond    | 92.796     | 92.796     | 92.796     |   0.0 |  1.17
Kspace  | 6518.1     | 6518.1     | 6518.1     |   0.0 | 82.07
Neigh   | 0.02854    | 0.02854    | 0.02854    |   0.0 |  0.00
Comm    | 20.593     | 20.593     | 20.593     |   0.0 |  0.26
Output  | 0.089574   | 0.089574   | 0.089574   |   0.0 |  0.00
Modify  | 494.83     | 494.83     | 494.83     |   0.0 |  6.23
Other   |            | 13.61      |            |       |  0.17

Nlocal:           1500 ave        1500 max        1500 min
Histogram: 1 0 0 0 0 0 0 0 0 0
Nghost:            973 ave         973 max         973 min
Histogram: 1 0 0 0 0 0 0 0 0 0
Neighs:              0 ave           0 max           0 min
Histogram: 1 0 0 0 0 0 0 0 0 0

Total # of neighbors = 0
Ave neighs/atom = 0
Ave special neighs/atom = 2
Neighbor list builds = 16519
Dangerous builds = 0
write_data	last_conf.data pair ij
System init for write_data ...
PPPM initialization ...
  using 12-bit tables for long-range coulomb (src/kspace.cpp:342)
  G vector (1/distance) = 0.16590657
  grid = 30 30 30
  stencil order = 5
  estimated absolute RMS force accuracy = 0.029187338
  estimated relative force accuracy = 8.7896802e-05
  using double precision FFTW3
  3d grid and FFT values/proc = 42875 27000
Generated 1 of 1 mixed pair_coeff terms from arithmetic mixing rule
Total wall time: 2:12:22
