LAMMPS data file via write_data, version 29 Aug 2024, timestep = 0, units = real

1500 atoms
2 atom types
1000 bonds
1 bond types
500 angles
1 angle types

0 159 xlo xhi
0 159 ylo yhi
0 159 zlo zhi

Masses

1 12.0107
2 15.9994

PairIJ Coeffs # lj/cut/coul/long/gpu

1 1 0.053649 2.8 12
1 2 0.0917684 2.925 12
2 2 0.156973 3.05 12

Bond Coeffs # harmonic

1 0 1.16

Angle Coeffs # harmonic

1 0 180

Atoms # full

1 1 1 0.7 11.714590752830073 45.12678281503114 15.83877222837823 0 0 0
2 1 2 -0.35 10.706930008587857 45.3644688406647 15.315584711581673 0 0 0
3 1 2 -0.35 12.722251497072289 44.889096789397584 16.361959745174786 0 0 0
4 2 1 0.7 36.24484235292526 38.06542561485685 108.60830889903396 0 0 0
5 2 2 -0.35 36.59216220905484 38.56599270566906 107.6211911223052 0 0 0
6 2 2 -0.35 35.89752249679568 37.56485852404464 109.59542667576271 0 0 0
7 3 1 0.7 59.8476660637407 25.723533289843953 14.424002407316118 0 0 0
8 3 2 -0.35 59.38505720878772 24.659770075007444 14.423069626640086 0 0 0
9 3 2 -0.35 60.31027491869367 26.787296504680462 14.424935187992151 0 0 0
10 4 1 0.7 108.20845976202212 17.583220305658514 99.18367720264182 0 0 0
11 4 2 -0.35 107.12340044426311 17.782264243809674 99.54232436578359 0 0 0
12 4 2 -0.35 109.29351907978112 17.384176367507354 98.82503003950005 0 0 0
13 5 1 0.7 24.062744800961926 85.55186976704368 33.27517470311149 0 0 0
14 5 2 -0.35 23.890086025917505 85.83684821656392 34.38628956247987 0 0 0
15 5 2 -0.35 24.235403576006348 85.26689131752345 32.16405984374311 0 0 0
16 6 1 0.7 52.86123519477492 105.77991858207616 64.09160895417054 0 0 0
17 6 2 -0.35 51.773761010385506 105.95347822726642 63.72708604974887 0 0 0
18 6 2 -0.35 53.948709379164335 105.60635893688591 64.4561318585922 0 0 0
19 7 1 0.7 121.6716927442102 37.13995194115674 136.1722750212868 0 0 0
20 7 2 -0.35 120.65032014464504 37.402628057404065 135.68916088279494 0 0 0
21 7 2 -0.35 122.69306534377537 36.87727582490941 136.65538915977865 0 0 0
22 8 1 0.7 1.4262827674049339 121.53447177472268 115.86711776390072 0 0 0
23 8 2 -0.35 0.9513893676752304 122.55190405654606 116.15850721257179 0 0 0
24 8 2 -0.35 1.9011761671346372 120.51703949289929 115.57572831522965 0 0 0
25 9 1 0.7 105.64825787937653 77.2701786813653 126.89309770655497 0 0 0
26 9 2 -0.35 105.30750087632775 77.98219725651902 126.04308934570828 0 0 0
27 9 2 -0.35 105.98901488242531 76.55816010621157 127.74310606740165 0 0 0
28 10 1 0.7 25.293154069359023 95.04044371705524 30.737552547239492 0 0 0
29 10 2 -0.35 25.299733379333368 94.08090174283798 31.389346926162407 0 0 0
30 10 2 -0.35 25.286574759384678 95.9999856912725 30.085758168316577 0 0 0
31 11 1 0.7 15.045661454110249 62.432059230949754 54.61949457257031 0 0 0
32 11 2 -0.35 14.651250482557703 62.40288115210209 55.709993827606155 0 0 0
33 11 2 -0.35 15.440072425662795 62.46123730979742 53.528995317534466 0 0 0
34 12 1 0.7 82.84528118923552 17.640947481450137 115.40432073241301 0 0 0
35 12 2 -0.35 81.92594241060876 18.324355772731725 115.58699343842196 0 0 0
36 12 2 -0.35 83.76461996786229 16.95753919016855 115.22164802640407 0 0 0
37 13 1 0.7 118.41854966544479 57.56422713052679 125.96538276363415 0 0 0
38 13 2 -0.35 118.50351984226693 56.41338457251832 125.84730873716205 0 0 0
39 13 2 -0.35 118.33357948862265 58.71506968853526 126.08345679010625 0 0 0
40 14 1 0.7 15.188108399132318 71.5378642168538 137.8838926618378 0 0 0
41 14 2 -0.35 14.48708899362326 71.19703227110931 138.7429650556788 0 0 0
42 14 2 -0.35 15.889127804641376 71.8786961625983 137.02482026799677 0 0 0
43 15 1 0.7 148.5839675080888 155.74190844816243 96.25528826623004 0 0 0
44 15 2 -0.35 147.79733043087498 155.74802341632264 95.40278330089733 0 0 0
45 15 2 -0.35 149.3706045853026 155.73579348000223 97.10779323156275 0 0 0
46 16 1 0.7 96.62989052833518 32.570109729454906 127.83422294856712 0 0 0
47 16 2 -0.35 95.48036322471428 32.41993440605936 127.79379584784127 0 0 0
48 16 2 -0.35 97.77941783195608 32.72028505285045 127.87465004929297 0 0 0
49 17 1 0.7 101.78509656748973 21.118009799680678 42.390703233140854 0 0 0
50 17 2 -0.35 100.81337009751243 21.68969856952462 42.66368604941284 0 0 0
51 17 2 -0.35 102.75682303746703 20.546321029836736 42.11772041686887 0 0 0
52 18 1 0.7 140.549239398236 107.06656615299478 64.77733338334474 0 0 0
53 18 2 -0.35 139.73360086134755 107.68835160643972 64.23537708711163 0 0 0
54 18 2 -0.35 141.36487793512447 106.44478069954984 65.31928967957785 0 0 0
55 19 1 0.7 39.64217387495663 56.01631639619186 27.229670796650307 0 0 0
56 19 2 -0.35 39.462433236448646 56.32793499794647 26.126862041738903 0 0 0
57 19 2 -0.35 39.82191451346462 55.70469779443725 28.33247955156171 0 0 0
58 20 1 0.7 47.077079301735886 40.471824275083755 7.9505913327218 0 0 0
59 20 2 -0.35 47.99753842816676 40.40713239865421 8.653563563819251 0 0 0
60 20 2 -0.35 46.15662017530501 40.5365161515133 7.247619101624348 0 0 0
61 21 1 0.7 65.58852905528086 158.4078321053683 64.4341949249777 0 0 0
62 21 2 -0.35 66.39816572640991 157.67936162033453 64.83346828146136 0 0 0
63 21 2 -0.35 64.7788923841518 0.13630259040206738 64.03492156849404 0 1 0
64 22 1 0.7 155.51410410018363 83.54761178630758 55.71129247160223 0 0 0
65 22 2 -0.35 154.58879908765383 82.86323838437413 55.566228070341175 0 0 0
66 22 2 -0.35 156.43940911271343 84.23198518824104 55.85635687286328 0 0 0
67 23 1 0.7 147.69257021867324 120.02766524116865 71.96970832160196 0 0 0
68 23 2 -0.35 148.45520896391972 120.62737678155382 71.33384024363473 0 0 0
69 23 2 -0.35 146.92993147342676 119.42795370078348 72.60557639956919 0 0 0
70 24 1 0.7 81.88776116393868 142.6018823173837 102.83610826816229 0 0 0
71 24 2 -0.35 81.06832344877874 143.34175913170702 103.19206350495514 0 0 0
72 24 2 -0.35 82.70719887909861 141.8620055030604 102.48015303136944 0 0 0
73 25 1 0.7 36.47166300354137 34.240100519843445 52.369437008802514 0 0 0
74 25 2 -0.35 35.42784233661318 33.75673426121132 52.21978583002476 0 0 0
75 25 2 -0.35 37.515483670469564 34.72346677847557 52.519088187580266 0 0 0
76 26 1 0.7 108.1278069439008 93.05130614063299 148.3023056184418 0 0 0
77 26 2 -0.35 107.0467408004834 93.34821446565496 148.00441060322788 0 0 0
78 26 2 -0.35 109.20887308731818 92.75439781561101 148.60020063365573 0 0 0
79 27 1 0.7 32.85052915143339 70.8434481410512 73.83290664750751 0 0 0
80 27 2 -0.35 32.00384453036931 70.76921156857819 73.04346755311136 0 0 0
81 27 2 -0.35 33.69721377249748 70.91768471352421 74.62234574190367 0 0 0
82 28 1 0.7 73.66202465894726 63.64844292665293 146.38026825589142 0 0 0
83 28 2 -0.35 72.83172792964348 64.20299523906927 146.97075879273444 0 0 0
84 28 2 -0.35 74.49232138825104 63.09389061423661 145.7897777190484 0 0 0
85 29 1 0.7 6.168576766815305 7.2697198648330374 70.18176824887365 0 0 0
86 29 2 -0.35 5.009204091973761 7.294513689009725 70.21075561014467 0 0 0
87 29 2 -0.35 7.32794944165685 7.24492604065635 70.15278088760263 0 0 0
88 30 1 0.7 82.97895881951737 38.360879628621454 145.3039182407334 0 0 0
89 30 2 -0.35 82.05913333018106 38.40991394064992 144.59885320443453 0 0 0
90 30 2 -0.35 83.89878430885369 38.311845316592986 146.00898327703226 0 0 0
91 31 1 0.7 41.95387200636504 112.72681097720135 114.51209382317592 0 0 0
92 31 2 -0.35 42.26605214799899 111.7412689648234 113.98592797383995 0 0 0
93 31 2 -0.35 41.64169186473109 113.7123529895793 115.03825967251188 0 0 0
94 32 1 0.7 68.76088611770463 52.212980261637355 22.559257339015257 0 0 0
95 32 2 -0.35 67.96951484324053 51.36552551346106 22.525316865439912 0 0 0
96 32 2 -0.35 69.55225739216873 53.06043500981365 22.593197812590603 0 0 0
97 33 1 0.7 97.43809682942839 101.09341220282641 2.978892903765148 0 0 0
98 33 2 -0.35 96.29696531733671 100.93004644120069 3.1082393379634166 0 0 0
99 33 2 -0.35 98.57922834152006 101.25677796445214 2.8495464695668797 0 0 0
100 34 1 0.7 140.253033580842 57.73539321112232 140.75369933282664 0 0 0
101 34 2 -0.35 139.254415957564 57.682985592268494 140.1658079449286 0 0 0
102 34 2 -0.35 141.25165120411998 57.78780082997615 141.3415907207247 0 0 0
103 35 1 0.7 45.42468681718441 93.71133641838624 111.43118381753153 0 0 0
104 35 2 -0.35 44.27847525645855 93.88953850905054 111.42462081964456 0 0 0
105 35 2 -0.35 46.57089837791027 93.53313432772194 111.4377468154185 0 0 0
106 36 1 0.7 121.90642125248276 7.221990477862763 62.99396143946515 0 0 0
107 36 2 -0.35 120.92578845522627 6.667142283961521 63.2698287964856 0 0 0
108 36 2 -0.35 122.88705404973925 7.776838671764004 62.71809408244471 0 0 0
109 37 1 0.7 117.50991309085391 50.10931798168892 123.3073182456695 0 0 0
110 37 2 -0.35 116.35070642754997 50.10673897741453 123.26450165439147 0 0 0
111 37 2 -0.35 118.66911975415786 50.111896985963305 123.35013483694755 0 0 0
112 38 1 0.7 20.09775496744446 66.96773783907655 124.76986135950771 0 0 0
113 38 2 -0.35 20.14074307642216 67.57702002378254 123.78369340125394 0 0 0
114 38 2 -0.35 20.054766858466756 66.35845565437056 125.75602931776149 0 0 0
115 39 1 0.7 115.05986924611956 53.22241953165383 134.20506850593029 0 0 0
116 39 2 -0.35 114.27128238171615 52.50784853975995 133.74342031213527 0 0 0
117 39 2 -0.35 115.84845611052297 53.936990523547706 134.6667166997253 0 0 0
118 40 1 0.7 10.586379170225179 4.274713974573982 136.1177706649144 0 0 0
119 40 2 -0.35 10.334700910733813 4.315294865485832 137.24941161724522 0 0 0
120 40 2 -0.35 10.838057429716544 4.234133083662131 134.98612971258356 0 0 0
121 41 1 0.7 39.37156521639394 118.89659193293032 142.02061676002137 0 0 0
122 41 2 -0.35 38.850532785653876 119.64931320693339 141.30820122834038 0 0 0
123 41 2 -0.35 39.892597647134004 118.14387065892726 142.73303229170236 0 0 0
124 42 1 0.7 32.50588567904471 2.4206077043994365 138.1536878413305 0 0 0
125 42 2 -0.35 31.363265348903 2.254127221324024 138.26460686540582 0 0 0
126 42 2 -0.35 33.64850600918642 2.587088187474849 138.0427688172552 0 0 0
127 43 1 0.7 72.03154924187416 8.248108178958347 136.95416375294056 0 0 0
128 43 2 -0.35 73.13660881388167 8.30587448612634 136.6061603103272 0 0 0
129 43 2 -0.35 70.92648966986665 8.190341871790354 137.30216719555392 0 0 0
130 44 1 0.7 104.63019567198594 138.69865906783318 9.362953072117154 0 0 0
131 44 2 -0.35 104.00941681633154 139.58098087454877 8.936641165449617 0 0 0
132 44 2 -0.35 105.25097452764035 137.81633726111758 9.789264978784692 0 0 0
133 45 1 0.7 112.15228307300819 157.42160804868752 24.966474290921575 0 0 0
134 45 2 -0.35 111.03031848360736 157.18961473129514 25.148063279618334 0 0 0
135 45 2 -0.35 113.27424766240902 157.6536013660799 24.784885302224815 0 0 0
136 46 1 0.7 10.533407518888549 67.98016995982275 127.71651474093855 0 0 0
137 46 2 -0.35 10.225658646440303 67.63744081549295 128.78114019861547 0 0 0
138 46 2 -0.35 10.841156391336794 68.32289910415254 126.65188928326162 0 0 0
139 47 1 0.7 31.463250954385497 127.85879035706576 37.689531204146114 0 0 0
140 47 2 -0.35 30.739641016630923 128.0070501171296 38.583962700421054 0 0 0
141 47 2 -0.35 32.186860892140075 127.71053059700192 36.795099707871174 0 0 0
142 48 1 0.7 150.9509480837504 28.584443593204227 79.74347098346031 0 0 0
143 48 2 -0.35 149.94089973645262 28.019466058655638 79.82222834233187 0 0 0
144 48 2 -0.35 151.9609964310482 29.149421127752817 79.66471362458876 0 0 0
145 49 1 0.7 37.51681901724861 110.17722289738117 34.58523628515435 0 0 0
146 49 2 -0.35 37.6969907884645 109.28648848083733 33.86431303539663 0 0 0
147 49 2 -0.35 37.33664724603272 111.067957313925 35.30615953491208 0 0 0
148 50 1 0.7 129.0662445891957 138.3728106121406 97.82795824707856 0 0 0
149 50 2 -0.35 128.39645247380466 137.58019059688942 98.34635195227109 0 0 0
150 50 2 -0.35 129.73603670458672 139.16543062739177 97.30956454188602 0 0 0
151 51 1 0.7 134.49425864941173 101.0051206629747 109.06298261604411 0 0 0
152 51 2 -0.35 133.67034888275066 101.56005928902724 109.66199498462711 0 0 0
153 51 2 -0.35 135.3181684160728 100.45018203692217 108.4639702474611 0 0 0
154 52 1 0.7 69.54882785330938 98.14973057068406 136.5217014870242 0 0 0
155 52 2 -0.35 69.49768139400523 96.99089042058017 136.53027739559798 0 0 0
156 52 2 -0.35 69.59997431261353 99.30857072078794 136.5131255784504 0 0 0
157 53 1 0.7 150.2368924153209 111.45082429864016 134.00398724526352 0 0 0
158 53 2 -0.35 149.1972210539011 111.37297960616398 133.4954366931089 0 0 0
159 53 2 -0.35 151.27656377674072 111.52866899111633 134.51253779741813 0 0 0
160 54 1 0.7 129.0136311440792 49.09863853924845 149.81792914858923 0 0 0
161 54 2 -0.35 128.2934208688844 49.968106934823005 150.0842407491643 0 0 0
162 54 2 -0.35 129.733841419274 48.22917014367389 149.55161754801415 0 0 0
163 55 1 0.7 65.93520033915304 101.9121001450867 88.66713847204443 0 0 0
164 55 2 -0.35 65.1119565776094 101.74517836460147 89.4671427397075 0 0 0
165 55 2 -0.35 66.75844410069668 102.07902192557192 87.86713420438136 0 0 0
166 56 1 0.7 80.5962996508909 61.00823252322535 133.3640178485606 0 0 0
167 56 2 -0.35 79.45724366532576 60.95335414710419 133.15155649776344 0 0 0
168 56 2 -0.35 81.73535563645603 61.06311089934651 133.57647919935775 0 0 0
169 57 1 0.7 26.0479807579182 61.412598331185336 92.54015223194853 0 0 0
170 57 2 -0.35 24.939638682933413 61.4803538217108 92.20461231133986 0 0 0
171 57 2 -0.35 27.156322832902987 61.34484284065987 92.87569215255719 0 0 0
172 58 1 0.7 143.33856235879406 82.21756425184084 120.60238068904839 0 0 0
173 58 2 -0.35 143.71161015078448 81.20890959598344 121.03718079266875 0 0 0
174 58 2 -0.35 142.96551456680365 83.22621890769824 120.16758058542803 0 0 0
175 59 1 0.7 32.21224083621625 155.13173428649628 17.058153143179673 0 0 0
176 59 2 -0.35 31.956203778995388 154.0749698463834 16.65405669003692 0 0 0
177 59 2 -0.35 32.46827789343712 156.18849872660917 17.462249596322426 0 0 0
178 60 1 0.7 19.379877420784847 85.59981113094828 44.02567784768794 0 0 0
179 60 2 -0.35 18.36006969302486 85.33454343582326 43.5406775916838 0 0 0
180 60 2 -0.35 20.399685148544833 85.8650788260733 44.51067810369207 0 0 0
181 61 1 0.7 112.56758609114569 141.41943388544928 104.42531274604859 0 0 0
182 61 2 -0.35 111.49721068484601 141.71412274653957 104.76154921750599 0 0 0
183 61 2 -0.35 113.63796149744536 141.124745024359 104.08907627459119 0 0 0
184 62 1 0.7 34.23132283856688 63.842947793585694 76.42356679468583 0 0 0
185 62 2 -0.35 34.795375634069636 64.6540589110147 77.03146744369732 0 0 0
186 62 2 -0.35 33.66727004306413 63.031836676156686 75.81566614567433 0 0 0
187 63 1 0.7 48.887118284537976 92.79700822979072 8.317318092713746 0 0 0
188 63 2 -0.35 47.823249487272854 93.22219764003351 8.135666922546699 0 0 0
189 63 2 -0.35 49.9509870818031 92.37181881954793 8.498969262880793 0 0 0
190 64 1 0.7 28.16518423993382 29.25152056769073 2.306181178105148 0 0 0
191 64 2 -0.35 28.20543156960588 30.158659980709228 1.58432368676581 0 0 0
192 64 2 -0.35 28.124936910261756 28.34438115467223 3.028038669444486 0 0 0
193 65 1 0.7 122.98706041322419 43.52436505887861 114.00354457274244 0 0 0
194 65 2 -0.35 123.25706866550613 42.910558736202866 114.95008424013253 0 0 0
195 65 2 -0.35 122.71705216094225 44.13817138155435 113.05700490535236 0 0 0
196 66 1 0.7 107.57363408225292 1.068020424837256 142.2192802397624 0 0 0
197 66 2 -0.35 106.83082667968169 1.2948479843686822 141.35766175056756 0 0 0
198 66 2 -0.35 108.31644148482415 0.8411928653058299 143.08089872895727 0 0 0
199 67 1 0.7 32.44298968671029 58.327664539836185 78.05792102686033 0 0 0
200 67 2 -0.35 32.0467641853997 57.33631969957676 77.60422425609576 0 0 0
201 67 2 -0.35 32.83921518802088 59.31900938009561 78.5116177976249 0 0 0
202 68 1 0.7 10.478698441516 102.48470655944418 13.463144578255314 0 0 0
203 68 2 -0.35 9.824000482864184 103.15040958929569 12.774805955930756 0 0 0
204 68 2 -0.35 11.133396400167817 101.81900352959266 14.151483200579872 0 0 0
205 69 1 0.7 18.07092673707331 28.065669991106574 105.71554052816496 0 0 0
206 69 2 -0.35 16.968557967975205 28.12188014216333 106.07222458420799 0 0 0
207 69 2 -0.35 19.173295506171417 28.009459840049818 105.35885647212194 0 0 0
208 70 1 0.7 95.08965686852562 62.86298931011138 142.26133504196133 0 0 0
209 70 2 -0.35 93.9758864996805 62.94110561581108 141.94667108109763 0 0 0
210 70 2 -0.35 96.20342723737075 62.78487300441168 142.57599900282503 0 0 0
211 71 1 0.7 103.25805024395606 132.05045016950484 49.9159988676738 0 0 0
212 71 2 -0.35 104.30137141453852 131.6113741770252 50.16955992115494 0 0 0
213 71 2 -0.35 102.2147290733736 132.4895261619845 49.66243781419266 0 0 0
214 72 1 0.7 54.192968993537576 69.22987438609351 143.49880707380308 0 0 0
215 72 2 -0.35 53.03572452462985 69.24815721221691 143.57659510277549 0 0 0
216 72 2 -0.35 55.3502134624453 69.21159155997012 143.42101904483067 0 0 0
217 73 1 0.7 72.4504894080807 53.37548161222389 3.719456646926448 0 0 0
218 73 2 -0.35 72.39860226754821 54.469456384773046 4.101722158937921 0 0 0
219 73 2 -0.35 72.50237654861319 52.28150683967474 3.337191134914975 0 0 0
220 74 1 0.7 25.90786489281238 91.48525349771847 62.65553615459034 0 0 0
221 74 2 -0.35 24.758514147617046 91.58086871078103 62.531235730013705 0 0 0
222 74 2 -0.35 27.057215638007715 91.38963828465592 62.77983657916697 0 0 0
223 75 1 0.7 153.59615019969462 125.49640626762827 83.10014002821414 0 0 0
224 75 2 -0.35 153.05886033082967 124.8040823608234 82.34013528817529 0 0 0
225 75 2 -0.35 154.13344006855957 126.18873017443315 83.860144768253 0 0 0
226 76 1 0.7 8.053454195174135 45.40465829167732 75.0919082207102 0 0 0
227 76 2 -0.35 9.01086842709987 45.73332766127025 75.65841897435698 0 0 0
228 76 2 -0.35 7.0960399632484 45.07598892208439 74.52539746706341 0 0 0
229 77 1 0.7 86.70146547616527 115.53025790980564 9.044690103290923 0 0 0
230 77 2 -0.35 85.88193495752266 116.1357651315593 8.490315921516967 0 0 0
231 77 2 -0.35 87.52099599480788 114.92475068805199 9.59906428506488 0 0 0
232 78 1 0.7 10.10656601055831 49.05493945351566 51.36739523772495 0 0 0
233 78 2 -0.35 10.242518599104484 48.54768103798665 50.3330810719404 0 0 0
234 78 2 -0.35 9.970613422012137 49.56219786904467 52.4017094035095 0 0 0
235 79 1 0.7 120.8117604431751 53.25776844390564 92.31423672210157 0 0 0
236 79 2 -0.35 119.89882335408691 52.633951369485544 91.96352583115416 0 0 0
237 79 2 -0.35 121.72469753226329 53.881585518325736 92.66494761304898 0 0 0
238 80 1 0.7 3.3765883610474825 146.32058412503477 116.05738945959945 0 0 0
239 80 2 -0.35 4.311697709978505 145.72746969408456 116.40291192969424 0 0 0
240 80 2 -0.35 2.44147901211646 146.91369855598498 115.71186698950466 0 0 0
241 81 1 0.7 123.54464748806537 33.89033191459735 56.80848863758542 0 0 0
242 81 2 -0.35 122.8006437607445 34.726119234319036 57.11429578257243 0 0 0
243 81 2 -0.35 124.28865121538622 33.05454459487566 56.50268149259841 0 0 0
244 82 1 0.7 144.26853189816165 130.21561240275187 57.797653050533334 0 0 0
245 82 2 -0.35 144.54393074596342 129.17591470241595 58.232146049954125 0 0 0
246 82 2 -0.35 143.9931330503599 131.2553101030878 57.363160051112544 0 0 0
247 83 1 0.7 74.15482031374928 78.06501318424242 129.6765875623918 0 0 0
248 83 2 -0.35 73.27154265203204 78.11363710201809 128.9262167960826 0 0 0
249 83 2 -0.35 75.03809797546653 78.01638926646675 130.426958328701 0 0 0
250 84 1 0.7 61.40716111911794 1.1569290152550344 46.50595939136388 0 0 0
251 84 2 -0.35 62.55826752935012 1.0135937352076296 46.50295442611937 0 0 0
252 84 2 -0.35 60.256054708885756 1.3002642953024393 46.50896435660839 0 0 0
253 85 1 0.7 140.65949065268947 52.05939975197399 144.33163142685387 0 0 0
254 85 2 -0.35 141.5654682676089 51.379299946738534 144.08209422284696 0 0 0
255 85 2 -0.35 139.75351303777003 52.73949955720945 144.5811686308608 0 0 0
256 86 1 0.7 77.72939113328671 53.8767771496795 1.993554663375744 0 0 0
257 86 2 -0.35 77.09404047763536 54.19191740930984 2.911495925725095 0 0 0
258 86 2 -0.35 78.36474178893806 53.56163689004916 1.0756134010263925 0 0 0
259 87 1 0.7 115.67322735612896 26.932174459533844 135.05614138536907 0 0 0
260 87 2 -0.35 115.3597919252558 26.423135630805763 136.0502428397089 0 0 0
261 87 2 -0.35 115.98666278700212 27.441213288261924 134.06203993102926 0 0 0
262 88 1 0.7 4.568263897936914 140.81133262571475 60.06744038782429 0 0 0
263 88 2 -0.35 4.572914624435453 140.5524755951835 58.93670106840201 0 0 0
264 88 2 -0.35 4.563613171438376 141.07018965624601 61.198179707246574 0 0 0
265 89 1 0.7 62.47059816283668 66.34332279597564 124.22623196254774 0 0 0
266 89 2 -0.35 61.69450350273127 66.83598761610202 123.51873040525919 0 0 0
267 89 2 -0.35 63.24669282294209 65.85065797584926 124.9337335198363 0 0 0
268 90 1 0.7 41.28059453995926 85.95243309529145 87.54303256354436 0 0 0
269 90 2 -0.35 42.03473241419988 85.176678394198 87.96145903303122 0 0 0
270 90 2 -0.35 40.52645666571864 86.7281877963849 87.1246060940575 0 0 0
271 91 1 0.7 108.74829549004711 27.60230122162136 108.87663179024896 0 0 0
272 91 2 -0.35 107.74227749643086 27.40380883882188 108.33429557488905 0 0 0
273 91 2 -0.35 109.75431348366337 27.80079360442084 109.41896800560887 0 0 0
274 92 1 0.7 117.55049871446121 96.2318939497843 21.44161402454675 0 0 0
275 92 2 -0.35 116.66451902325916 95.93939653984211 22.13087830764477 0 0 0
276 92 2 -0.35 118.43647840566327 96.52439135972648 20.752349741448732 0 0 0
277 93 1 0.7 75.20691055720994 111.54573502742953 139.16860600801584 0 0 0
278 93 2 -0.35 74.04791453465107 111.49854671154041 139.1786798621088 0 0 0
279 93 2 -0.35 76.3659065797688 111.59292334331865 139.1585321539229 0 0 0
280 94 1 0.7 116.76117672247868 27.097174698997836 46.21516605662888 0 0 0
281 94 2 -0.35 116.85063178075083 26.434877451263514 47.163301146261716 0 0 0
282 94 2 -0.35 116.67172166420653 27.75947194673216 45.267030966996046 0 0 0
283 95 1 0.7 23.29591376161944 76.4225915378996 32.49597747879847 0 0 0
284 95 2 -0.35 22.145021991803112 76.28389775307134 32.53854704796539 0 0 0
285 95 2 -0.35 24.446805531435764 76.56128532272787 32.45340790963156 0 0 0
286 96 1 0.7 153.89348616585764 34.82198956926446 133.17869062776617 0 0 0
287 96 2 -0.35 153.27530538562593 35.157115488262654 134.10126482064592 0 0 0
288 96 2 -0.35 154.51166694608935 34.486863650266265 132.25611643488642 0 0 0
289 97 1 0.7 91.25338086590794 140.57221331474008 16.18918083663526 0 0 0
290 97 2 -0.35 91.24538321741743 141.03368100113246 15.124951720310078 0 0 0
291 97 2 -0.35 91.26137851439846 140.1107456283477 17.253409952960443 0 0 0
292 98 1 0.7 42.56232132881988 3.9345734757066584 143.37640620180238 0 0 0
293 98 2 -0.35 42.27087092076089 3.350816535429255 144.33551229307707 0 0 0
294 98 2 -0.35 42.85377173687886 4.518330415984062 142.4173001105277 0 0 0
295 99 1 0.7 82.25903369265563 22.579272463256153 115.83228994618742 0 0 0
296 99 2 -0.35 81.16173207507742 22.303620662543715 115.57627189052684 0 0 0
297 99 2 -0.35 83.35633531023385 22.85492426396859 116.08830800184799 0 0 0
298 100 1 0.7 156.2971255720114 46.789488795581036 135.93818733046677 0 0 0
299 100 2 -0.35 156.0295350523302 47.90636231647983 135.7751264458504 0 0 0
300 100 2 -0.35 156.5647160916926 45.672615274682244 136.10124821508316 0 0 0
301 101 1 0.7 42.11446315521117 108.78224963405273 121.26959952445218 0 0 0
302 101 2 -0.35 41.24332705211875 108.6868816612089 120.50958186699637 0 0 0
303 101 2 -0.35 42.98559925830359 108.87761760689656 122.02961718190798 0 0 0
304 102 1 0.7 116.15920746752955 85.79990676920856 68.03307008837959 0 0 0
305 102 2 -0.35 117.25452789835643 86.18175579518484 68.02504044491234 0 0 0
306 102 2 -0.35 115.06388703670268 85.41805774323228 68.04109973184684 0 0 0
307 103 1 0.7 62.808975395657576 29.449474816885534 149.3232473951407 0 0 0
308 103 2 -0.35 61.78287221629433 28.909796296992155 149.28504581838882 0 0 0
309 103 2 -0.35 63.83507857502082 29.989153336778912 149.36144897189257 0 0 0
310 104 1 0.7 19.818970129740876 151.4309705549064 146.32211631178956 0 0 0
311 104 2 -0.35 18.65937527168728 151.45281067034256 146.30060411679693 0 0 0
312 104 2 -0.35 20.97856498779447 151.40913043947023 146.34362850678218 0 0 0
313 105 1 0.7 141.80885224687347 130.37971320253783 112.83979505339627 0 0 0
314 105 2 -0.35 140.92890904744223 131.02577195404058 112.44748388177172 0 0 0
315 105 2 -0.35 142.6887954463047 129.73365445103508 113.23210622502083 0 0 0
316 106 1 0.7 105.43546243125363 157.8170820795079 152.69851028951746 0 0 0
317 106 2 -0.35 104.30543335778779 157.7385082613212 152.44858940560118 0 0 0
318 106 2 -0.35 106.56549150471946 157.89565589769464 152.94843117343373 0 0 0
319 107 1 0.7 143.86243592009993 141.96050911953697 135.27677205776646 0 0 0
320 107 2 -0.35 144.56142843327706 141.04303107923707 135.40023667654367 0 0 0
321 107 2 -0.35 143.1634434069228 142.87798715983686 135.15330743898926 0 0 0
322 108 1 0.7 55.70797488079777 91.93382156823473 128.7390973212845 0 0 0
323 108 2 -0.35 56.8590276853286 91.9781481508861 128.87589130964716 0 0 0
324 108 2 -0.35 54.55692207626694 91.88949498558337 128.60230333292185 0 0 0
325 109 1 0.7 46.008678828835805 50.865076243348916 105.33642196531241 0 0 0
326 109 2 -0.35 44.860771168219 50.96627370944687 105.20350441360226 0 0 0
327 109 2 -0.35 47.15658648945261 50.763878777250966 105.46933951702256 0 0 0
328 110 1 0.7 83.2439710056614 40.42069215114261 102.57298425378882 0 0 0
329 110 2 -0.35 84.01521378323406 41.18590855123905 102.97946726581448 0 0 0
330 110 2 -0.35 82.47272822808873 39.65547575104617 102.16650124176316 0 0 0
331 111 1 0.7 66.14635342878586 152.76207760384403 99.2382878066219 0 0 0
332 111 2 -0.35 65.3075016619956 153.05483566577294 99.98408967744851 0 0 0
333 111 2 -0.35 66.98520519557611 152.46931954191513 98.49248593579529 0 0 0
334 112 1 0.7 146.90316589404975 49.50918129436168 53.81001433674712 0 0 0
335 112 2 -0.35 146.02793563453287 48.794360849997354 54.071937465059186 0 0 0
336 112 2 -0.35 147.77839615356663 50.22400173872601 53.54809120843506 0 0 0
337 113 1 0.7 151.91095770891334 104.46621370663226 85.65376736812935 0 0 0
338 113 2 -0.35 150.91880653796784 105.04297562108745 85.82282874167595 0 0 0
339 113 2 -0.35 152.90310887985885 103.88945179217707 85.48470599458275 0 0 0
340 114 1 0.7 155.86815614992202 151.1004117392471 155.6201015262027 0 0 0
341 114 2 -0.35 154.78549858060148 150.83804246324695 155.29665918110214 0 0 0
342 114 2 -0.35 156.95081371924255 151.36278101524726 155.94354387130323 0 0 0
343 115 1 0.7 116.04635088846383 97.0193824116231 59.76019214920709 0 0 0
344 115 2 -0.35 116.95997576948297 97.15372885754911 59.05816607472708 0 0 0
345 115 2 -0.35 115.1327260074447 96.88503596569709 60.4622182236871 0 0 0
346 116 1 0.7 145.549451723485 34.63511661236878 13.404904082140376 0 0 0
347 116 2 -0.35 145.77853098599346 33.56008426660026 13.034191056957802 0 0 0
348 116 2 -0.35 145.32037246097653 35.7101489581373 13.775617107322951 0 0 0
349 117 1 0.7 152.22290853328207 100.42371887174608 36.44307743638897 0 0 0
350 117 2 -0.35 152.41343249542493 100.31203670664999 35.30429400050274 0 0 0
351 117 2 -0.35 152.0323845711392 100.53540103684216 37.58186087227519 0 0 0
352 118 1 0.7 30.802473389451613 152.17025651325017 10.501218195772367 0 0 0
353 118 2 -0.35 29.647881552550306 152.2430489125076 10.586182639931186 0 0 0
354 118 2 -0.35 31.95706522635292 152.09746411399274 10.416253751613548 0 0 0
355 119 1 0.7 3.9742163461512963 14.65412976483541 0.9589575887466584 0 0 0
356 119 2 -0.35 4.971312069938416 15.08074606193332 1.3705382645028306 0 0 0
357 119 2 -0.35 2.977120622364177 14.2275134677375 0.5473769129904861 0 0 0
358 120 1 0.7 58.200194065086635 2.6616519110564383 55.38366912556052 0 0 0
359 120 2 -0.35 57.54814067938236 1.7772300007849777 55.75545436844056 0 0 0
360 120 2 -0.35 58.85224745079091 3.546073821327899 55.011883882680486 0 0 0
361 121 1 0.7 47.32699329560948 106.77631930856793 115.59861910138214 0 0 0
362 121 2 -0.35 46.28165387203763 106.29553603215844 115.74597218296316 0 0 0
363 121 2 -0.35 48.37233271918134 107.25710258497743 115.45126601980112 0 0 0
364 122 1 0.7 44.991236929777656 122.71907877303617 150.5569384189122 0 0 0
365 122 2 -0.35 44.03809362575011 122.12883656203142 150.25905929185618 0 0 0
366 122 2 -0.35 45.944380233805205 123.30932098404092 150.85481754596825 0 0 0
367 123 1 0.7 84.46400665746258 34.5598919734172 21.104397222913985 0 0 0
368 123 2 -0.35 84.45501478178677 35.09427352098674 20.07485581636978 0 0 0
369 123 2 -0.35 84.47299853313838 34.02551042584766 22.13393862945819 0 0 0
370 124 1 0.7 131.60412551537348 21.53753688211438 97.38237769640162 0 0 0
371 124 2 -0.35 130.45204798739752 21.634676787992785 97.47661785885232 0 0 0
372 124 2 -0.35 132.75620304334944 21.440396976235977 97.28813753395092 0 0 0
373 125 1 0.7 118.62194342195146 137.00309273833554 131.97965320524744 0 0 0
374 125 2 -0.35 117.74297392511323 137.38278523526566 131.32478968404405 0 0 0
375 125 2 -0.35 119.50091291878968 136.62340024140542 132.63451672645084 0 0 0
376 126 1 0.7 132.03142059363026 48.085917143656836 142.0094334404028 0 0 0
377 126 2 -0.35 131.38728795668922 47.190361104733135 142.3681429707678 0 0 0
378 126 2 -0.35 132.6755532305713 48.98147318258054 141.6507239100378 0 0 0
379 127 1 0.7 3.5478328501562744 3.4267125764986095 34.75827321212658 0 0 0
380 127 2 -0.35 3.19737071982513 4.3764963578548475 35.3245655958617 0 0 0
381 127 2 -0.35 3.8982949804874187 2.4769287951423715 34.191980828391465 0 0 0
382 128 1 0.7 16.29787621148763 120.40548647260549 62.01114508044494 0 0 0
383 128 2 -0.35 15.389437417871209 119.8814710836412 61.51541649504629 0 0 0
384 128 2 -0.35 17.206315005104052 120.92950186156978 62.50687366584359 0 0 0
385 129 1 0.7 135.31536703804292 68.37380838737535 65.59756661746538 0 0 0
386 129 2 -0.35 134.25486307808606 68.83861497054878 65.66746791326506 0 0 0
387 129 2 -0.35 136.37587099799978 67.90900180420192 65.5276653216657 0 0 0
388 130 1 0.7 151.30213974057796 48.062619893840804 68.45255578237239 0 0 0
389 130 2 -0.35 150.23230041308722 47.836424418910475 68.0654131465452 0 0 0
390 130 2 -0.35 152.3719790680687 48.28881536877113 68.83969841819957 0 0 0
391 131 1 0.7 117.10503433277133 82.31203088784218 118.30313196373318 0 0 0
392 131 2 -0.35 116.37500670755374 81.52267658870711 118.73853919478952 0 0 0