LAMMPS data file via write_data, version 29 Aug 2024, timestep = 4000000, units = real

1500 atoms
2 atom types
1000 bonds
1 bond types
500 angles
1 angle types

0 159 xlo xhi
0 159 ylo yhi
0 159 zlo zhi

Masses

1 12.0107
2 15.9994

PairIJ Coeffs # lj/cut/coul/long/gpu

1 1 0.053649 2.8 12
1 2 0.0917684 2.925 12
2 2 0.156973 3.05 12

Bond Coeffs # harmonic

1 0 1.16

Angle Coeffs # harmonic

1 0 180

Atoms # full

265 89 1 0.7 15.54683009949907 25.421028218598817 15.673450704132211 -1 -9 3
695 232 2 -0.35 20.153776226791738 19.316404072447405 22.922117411961352 -3 -2 -4
267 89 2 -0.35 15.220989114068942 24.592523598284888 14.929805798056606 -1 -9 3
694 232 1 0.7 19.78954136019104 20.225215332369583 22.30002814522408 -3 -2 -4
696 232 2 -0.35 19.425306493590345 21.13402659229176 21.677938878486806 -3 -2 -4
266 89 2 -0.35 15.872671084929198 26.249532838912746 16.417095610207816 -1 -9 3
508 170 1 0.7 41.94676164613167 27.080198001386872 4.523647081016767 4 -8 4
510 170 2 -0.35 42.02981944126252 26.78643111271787 3.404539214100943 4 -8 4
420 140 2 -0.35 28.555832311459167 1.946115261560073 20.099817022079115 -1 10 -2
418 140 1 0.7 29.165564253612896 1.0411115776537607 19.706376695177457 -1 10 -2
1226 409 2 -0.35 65.15915269270393 26.254857942572347 14.222457580611183 -2 3 10
1073 358 2 -0.35 69.03187021938068 2.865440086360784 15.810049147006906 1 3 -2
1225 409 1 0.7 64.31657384363469 26.959446263240956 13.849340733661137 -2 3 10
1072 358 1 0.7 68.25490680195331 3.72285479434532 15.727782103116658 1 3 -2
1074 358 2 -0.35 67.47794338452593 4.580269502329856 15.64551505922641 1 3 -2
1123 375 1 0.7 61.023834695486194 18.25624529339276 1.177628790117194 4 5 7
1125 375 2 -0.35 60.51445918981424 19.28182922914621 1.3628696736936465 4 5 7
1124 375 2 -0.35 61.53321020115815 17.23066135763931 0.9923879065407413 4 5 7
960 320 2 -0.35 75.06603448844407 20.349410771599736 16.663509327659256 2 5 -10
958 320 1 0.7 75.0659954477241 20.0228582571574 17.776596679930567 2 5 -10
959 320 2 -0.35 75.06595640700415 19.69630574271506 18.889684032201878 2 5 -10
311 104 2 -0.35 104.38237523753634 13.413511775423473 11.482656529588386 -4 -4 4
310 104 1 0.7 103.9617872520812 13.685256246554703 10.43630062030162 -4 -4 4
312 104 2 -0.35 103.54119926662605 13.957000717685933 9.389944711014858 -4 -4 4
728 243 2 -0.35 114.1269627544046 0.8365206326874286 6.17749082581024 0 -1 2
727 243 1 0.7 113.0505226879889 0.5799898250066232 6.525440144140518 0 -1 2
221 74 2 -0.35 120.31090560094135 10.407469706388824 8.685636739642936 6 1 2
222 74 2 -0.35 118.81390124001771 11.223524231832952 7.112285871312313 6 1 2
220 74 1 0.7 119.56240342047953 10.815496969110889 7.898961305477624 6 1 2
1160 387 2 -0.35 115.95266128806296 1.5803198924666695 16.978112740134122 -5 0 0
1159 387 1 0.7 116.87592787779099 2.062692586986929 16.467725252166073 -5 0 0
1161 387 2 -0.35 117.799194467519 2.545065281507189 15.957337764198027 -5 0 0
55 19 1 0.7 120.71535255898537 8.32403697107386 4.638785463464538 2 4 1
57 19 2 -0.35 121.52715971493922 7.519091414650072 4.442235742694037 2 4 1
56 19 2 -0.35 119.90354540303153 9.12898252749765 4.835335184235039 2 4 1
842 281 2 -0.35 147.44812520581385 4.360019499333431 11.008686130781298 4 -8 6
841 281 1 0.7 147.58751645792708 3.2405737180483043 11.278892018201935 4 -8 6
843 281 2 -0.35 147.7269077100403 2.1211279367631777 11.549097905622572 4 -8 6
251 84 2 -0.35 136.46916085514056 12.499143619959677 158.0746027575541 -5 -1 2
250 84 1 0.7 137.45402297409302 12.178997053555742 158.59724296139507 -5 -1 2
252 84 2 -0.35 138.43888509304546 11.858850487151805 0.11988316523607268 -5 -1 3
1014 338 2 -0.35 13.74156632061015 30.778640731419564 26.76737166011377 10 0 -3
1012 338 1 0.7 12.791520019414005 31.156746930411185 26.21960553496013 10 0 -3
1013 338 2 -0.35 11.84147371821786 31.5348531294028 25.671839409806488 10 0 -3
509 170 2 -0.35 41.863703851000814 27.373964890055877 5.642754947932591 4 -8 4
141 47 2 -0.35 37.01405940614153 33.80055967366998 15.173717411668182 1 4 -4
139 47 1 0.7 37.438220498604316 33.64892575225488 14.10474850589166 1 4 -4
140 47 2 -0.35 37.86238159106712 33.497291830839785 13.035779600115143 1 4 -4
1040 347 2 -0.35 51.901477015773615 49.029415772555346 12.401789600837636 1 1 1
1041 347 2 -0.35 49.93024829212589 50.16122854473723 12.866178627189997 1 1 1
1039 347 1 0.7 50.91586265394975 49.59532215864629 12.633984114013817 1 1 1
433 145 1 0.7 26.590987585014652 35.68579720873445 1.4228033646161982 -1 0 -1
434 145 2 -0.35 26.66098742204404 36.379588375526154 0.4957899668172382 -1 0 -1
435 145 2 -0.35 26.52098774798526 34.992006041942744 2.3498167624151582 -1 0 -1
1227 409 2 -0.35 63.47399499456544 27.66403458390956 13.476223886711091 -2 3 10
10 4 1 0.7 67.35977859983603 46.470908725474665 8.521250634334649 -1 -2 5
11 4 2 -0.35 68.22500454612829 46.425739471234806 7.749924633001212 -1 -2 5
12 4 2 -0.35 66.49455265354378 46.516077979714524 9.292576635668086 -1 -2 5
661 221 1 0.7 75.62934536110447 36.65415768947538 4.794808187507593 -1 -3 -1
662 221 2 -0.35 74.88287795380275 37.18773733582566 5.504511767064819 -1 -3 -1
663 221 2 -0.35 76.3758127684062 36.12057804312511 4.085104607950367 -1 -3 -1
504 168 2 -0.35 59.34262188867012 47.45663230542399 6.23466896696578 3 -2 -2
503 168 2 -0.35 58.754364904335205 45.48818570056869 5.156906616440283 3 -2 -2
502 168 1 0.7 59.04849339650266 46.47240900299634 5.695787791703032 3 -2 -2
382 128 1 0.7 77.81662508949157 45.85155708567286 23.093596928784166 1 1 -4
383 128 2 -0.35 78.5681379975612 46.52738503248427 23.662881510794833 1 1 -4
384 128 2 -0.35 77.06511218142194 45.175729138861456 22.5243123467735 1 1 -4
801 267 2 -0.35 68.69829470873292 33.40571022866076 26.41524281697394 4 -2 -1
256 86 1 0.7 100.58773333680703 43.321760475943165 18.99214068978097 -3 2 3
257 86 2 -0.35 101.60461030926231 42.89383252586959 19.350524412115117 -3 2 3
258 86 2 -0.35 99.57085636435176 43.74968842601674 18.633756967446825 -3 2 3
705 235 2 -0.35 106.48256167956639 53.20795394033384 20.275714047703023 -1 -2 2
965 322 2 -0.35 123.15459566540918 34.66647016554735 4.000555136114505 5 1 -5
77 26 2 -0.35 116.5475849402957 29.588794048628735 19.370217549572125 2 -3 5
76 26 1 0.7 117.53133480782833 30.19623679006969 19.27614569405284 2 -3 5
964 322 1 0.7 122.87829498693024 35.64094885866929 4.565930420083235 5 1 -5
78 26 2 -0.35 118.51508467536095 30.803679531510642 19.182073838533555 2 -3 5
966 322 2 -0.35 122.60199430845131 36.61542755179123 5.1313057040519645 5 1 -5
242 81 2 -0.35 122.23065258345234 45.31091766707531 5.195247967825343 1 0 4
241 81 1 0.7 122.88206251687798 45.55327262290909 4.266523480144915 1 0 4
243 81 2 -0.35 123.5334724503036 45.79562757874287 3.337798992464488 1 0 4
1277 426 2 -0.35 8.514015765664741 70.62776088644945 1.183476776338365 -1 2 2
1276 426 1 0.7 9.119063875491799 69.8334975339253 0.5930002639947136 -1 2 2
1278 426 2 -0.35 9.724111985318856 69.03923418140116 0.0025237516510625557 -1 2 2
527 176 2 -0.35 49.04789348422328 72.80749211810765 23.42622915836624 0 10 6
526 176 1 0.7 49.21618274212956 71.95678321562704 24.196666105112616 0 10 6
528 176 2 -0.35 49.38447200003585 71.10607431314644 24.967103051858988 0 10 6
495 165 2 -0.35 33.90518306440741 66.69297284889912 19.73230505102946 -3 1 -2
493 165 1 0.7 34.897250059077365 67.16274604020812 20.107426667061 -3 1 -2
494 165 2 -0.35 35.88931705374732 67.63251923151712 20.482548283092527 -3 1 -2
1100 367 2 -0.35 75.11273149101504 76.78651554977081 16.003575342514996 5 -1 -1
318 106 2 -0.35 60.043593851584774 70.74932813646434 20.963572555953572 4 5 0
317 106 2 -0.35 61.35939434006717 69.07115428741353 21.87724733773732 4 5 0
316 106 1 0.7 60.70149409582597 69.91024121193894 21.420409946845446 4 5 0
1101 367 2 -0.35 74.03788654653019 76.97119147068655 18.051257727443755 5 -1 -1
1099 367 1 0.7 74.57530901877261 76.87885351022868 17.027416534979373 5 -1 -1
440 147 2 -0.35 103.58343422426546 59.89344919178222 7.600403497761217 1 1 1
441 147 2 -0.35 103.39309774242533 61.20202157744135 5.694147918052768 1 1 1
439 147 1 0.7 103.48826598334539 60.547735384611784 6.647275707906993 1 1 1
54 18 2 -0.35 104.78639753405439 71.78264967506043 18.88915844202002 1 -6 -1
52 18 1 0.7 104.11582948577585 71.2679223451492 18.094806965361528 1 -6 -1
53 18 2 -0.35 103.44526143749731 70.75319501523796 17.300455488703033 1 -6 -1
703 235 1 0.7 106.83373385415626 54.1891966938727 19.766360769100256 -1 -2 2
704 235 2 -0.35 107.18490602874614 55.17043944741157 19.25700749049749 -1 -2 2
891 297 2 -0.35 118.85351817858594 58.40726589418985 13.772613193947047 -2 11 5
890 297 2 -0.35 119.7538835120739 58.14490046180158 11.650607857918239 -2 11 5
889 297 1 0.7 119.30370084532991 58.276083177995716 12.711610525932644 -2 11 5
129 43 2 -0.35 124.47086023602458 74.850341703447 6.100620572388346 -6 -3 5
127 43 1 0.7 125.48988901615182 74.37622312830356 6.387660503370619 -6 -3 5
128 43 2 -0.35 126.50891779627906 73.90210455316013 6.674700434352893 -6 -3 5
1496 499 2 -0.35 140.7435535703891 67.20373137716247 13.009169741565794 4 2 1
1495 499 1 0.7 140.0737628282954 67.61266152998996 12.154911881249683 4 2 1
785 262 2 -0.35 136.90911114869124 70.07105556072294 3.8618518676124136 -1 4 -3
1497 499 2 -0.35 139.4039720862017 68.02159168281747 11.300654020933573 4 2 1
784 262 1 0.7 137.96453408593192 69.59147256722868 3.8208326538525026 -1 4 -3
786 262 2 -0.35 139.0199570231726 69.11188957373442 3.7798134400925916 -1 4 -3
449 150 2 -0.35 6.280094309983037 90.74797409363138 22.535520271890018 1 3 -1
448 150 1 0.7 6.860575786492585 90.37270726806018 23.46708672955926 1 3 -1
450 150 2 -0.35 7.441057263002133 89.997440442489 24.398653187228504 1 3 -1
1030 344 1 0.7 5.834180995641505 99.23864963739064 19.08084600286005 -6 6 2
1032 344 2 -0.35 5.429964747279457 100.25723678189883 19.461226672193344 -6 6 2
1031 344 2 -0.35 6.238397244003553 98.22006249288245 18.700465333526754 -6 6 2
1415 472 2 -0.35 10.558655351048378 83.30231448975833 25.7425920623623 4 5 4
1287 429 2 -0.35 0.29681120531911687 97.98983536594963 2.730484991601563 0 -2 6
1414 472 1 0.7 9.814547249705631 82.41421518550973 25.799008011441877 4 5 4
1285 429 1 0.7 1.2057559052654478 97.61680616867518 2.113825644455445 0 -2 6
1416 472 2 -0.35 9.070439148362885 81.52611588126113 25.855423960521456 4 5 4
1286 429 2 -0.35 2.114700605211779 97.24377697140073 1.4971662973093265 0 -2 6
290 97 2 -0.35 29.63986392160137 82.70426004190708 5.347594187866998 -1 6 -3
289 97 1 0.7 28.973364471921748 82.58269716525405 4.4059992905803425 -1 6 -3
291 97 2 -0.35 28.306865022242125 82.46113428860102 3.464404393293686 -1 6 -3
816 272 2 -0.35 45.103483267148086 83.30265424767471 13.99381971164961 -6 1 5
814 272 1 0.7 45.801287618851255 82.41965640117155 13.712778985391845 -6 1 5
815 272 2 -0.35 46.49909197055442 81.53665855466838 13.431738259134079 -6 1 5
1273 425 1 0.7 29.771949275279322 103.9587219495676 5.501117231131666 1 0 5
1275 425 2 -0.35 29.71351482301638 103.12190626780817 4.699915053432281 1 0 5
1274 425 2 -0.35 29.830383727542266 104.79553763132704 6.302319408831051 1 0 5
393 131 2 -0.35 60.1547499777129 92.27888582356209 20.259503447223132 3 -6 9
987 329 2 -0.35 67.58595432397625 95.36799477231843 18.383716563405727 1 2 -4
986 329 2 -0.35 67.68556119534969 93.60547886618095 19.8890458137001 1 2 -4
985 329 1 0.7 67.63575775966298 94.48673681924969 19.136381188552914 1 2 -4
391 131 1 0.7 60.73315708435983 91.80613606276856 19.372061684260313 3 -6 9
392 131 2 -0.35 61.31156419100676 91.33338630197503 18.48461992129749 3 -6 9
1395 465 2 -0.35 75.11731096583263 96.78417859872756 11.856638149458641 5 -2 -5
1393 465 1 0.7 74.68100409646263 96.73589356765851 12.930372228042998 5 -2 -5
1394 465 2 -0.35 74.24469722709263 96.68760853658944 14.004106306627355 5 -2 -5
629 210 2 -0.35 91.48101473779661 99.01416836852957 23.95495843037777 -1 -6 2
628 210 1 0.7 92.2775781686432 98.19171087645324 24.141104540635745 -1 -6 2
630 210 2 -0.35 93.07414159948978 97.36925338437692 24.327250650893717 -1 -6 2
840 280 2 -0.35 100.72294635407741 82.15375199714134 26.392039627421806 -4 3 7
188 63 2 -0.35 123.41673162025873 103.39446521686982 25.698613372421498 4 8 1
189 63 2 -0.35 122.96432033489785 105.22488634089906 27.050383522107783 4 8 1
187 63 1 0.7 123.19052597757829 104.30967577888444 26.374498447264642 4 8 1
587 196 2 -0.35 118.66375987645654 86.27391122434456 26.318327474489696 -2 4 -2
586 196 1 0.7 119.63351260800793 85.91531699543887 25.79240940231094 -2 4 -2
588 196 2 -0.35 120.60326533955933 85.55672276653318 25.266491330132187 -2 4 -2
812 271 2 -0.35 127.15422538773956 86.29563756566922 16.908092125352663 5 4 1
811 271 1 0.7 127.6986287430784 87.20405729040968 17.381377018834254 5 4 1
813 271 2 -0.35 128.24303209841725 88.11247701515013 17.854661912315844 5 4 1
808 270 1 0.7 145.5851162125062 91.34561908567052 10.598556938648994 1 -1 -5
809 270 2 -0.35 145.77812924041731 92.28608313171911 9.947501373318563 1 -1 -5
810 270 2 -0.35 145.39210318459507 90.40515503962193 11.249612503979426 1 -1 -5
101 34 2 -0.35 15.133900295226347 127.95886578252995 26.70253855883987 5 5 3
100 34 1 0.7 14.259798706176259 127.4410559865559 26.142699807758486 5 5 3
102 34 2 -0.35 13.38569711712617 126.92324619058184 25.5828610566771 5 5 3
177 59 2 -0.35 58.789333478919424 120.6331293455726 21.15400188120043 -6 1 3
175 59 1 0.7 58.43526601522094 120.87845022615114 20.07694389914826 -6 1 3
176 59 2 -0.35 58.08119855152245 121.12377110672969 18.99988591709609 -6 1 3
1352 451 2 -0.35 103.79379090472376 110.40997699934942 13.97431995195706 -3 3 4
1353 451 2 -0.35 102.86791558961256 111.7400040803567 15.634495504318465 -3 3 4
1351 451 1 0.7 103.33085324716816 111.07499053985306 14.804407728137763 -3 3 4
162 54 2 -0.35 151.43203303664458 115.06944684690725 7.4701188782372405 13 -1 7
160 54 1 0.7 152.58755635239902 115.03856813106204 7.567136256346994 13 -1 7
161 54 2 -0.35 153.74307966815346 115.00768941521682 7.664153634456748 13 -1 7
680 227 2 -0.35 139.70995548247404 110.02011496567711 3.3239827052644264 -2 4 -7
681 227 2 -0.35 139.9630861580155 110.53376047288495 5.572202702066823 -2 4 -7
679 227 1 0.7 139.83652082024477 110.27693771928104 4.448092703665624 -2 4 -7
120 40 2 -0.35 145.92207547092235 131.04850192465787 9.739656983326167 -1 -1 -1
119 40 2 -0.35 146.75930199733634 131.88095922123327 7.742542416545952 -1 -1 -1
118 40 1 0.7 146.34068873412934 131.46473057294557 8.74109969993606 -1 -1 -1
1320 440 2 -0.35 9.333137267992642 153.04456971998445 16.752116492183614 1 -2 -2
1318 440 1 0.7 9.488074480448137 153.940928816026 17.471932323587094 1 -2 -2
1319 440 2 -0.35 9.643011692903633 154.83728791206758 18.19174815499057 1 -2 -2
1093 365 1 0.7 14.011928565392052 145.72629300792846 13.674686357817464 3 10 0
93 31 2 -0.35 20.295569612423993 138.15824670477537 14.340631138416423 -6 6 -3
1094 365 2 -0.35 13.07357697891133 145.41913360665447 14.283578304190051 3 10 0
91 31 1 0.7 20.80797832999788 138.86959948553923 15.10024586145343 -6 6 -3
92 31 2 -0.35 21.320387047571767 139.58095226630306 15.859860584490438 -6 6 -3
1095 365 2 -0.35 14.950280151872777 146.03345240920245 13.065794411444877 3 10 0
401 134 2 -0.35 24.50166919989565 156.34404283592167 3.968840978670066 -6 -1 5
400 134 1 0.7 25.629816679037564 156.29173433776685 3.7039880264015923 -6 -1 5
402 134 2 -0.35 26.757964158179476 156.23942583961204 3.4391350741331186 -6 -1 5
1391 464 2 -0.35 32.87481643480934 157.34651839145636 2.814758903701235 -5 2 1
1392 464 2 -0.35 30.57041045995133 157.6092258640313 2.759100239590295 -5 2 1
1390 464 1 0.7 31.722613447380336 157.4778721277438 2.7869295716457647 -5 2 1
419 140 2 -0.35 29.77529619576663 0.13610789374743604 19.312936368275796 -1 10 -2
1185 395 2 -0.35 26.339142199101 144.5958050601776 20.956124310891326 -2 1 -2
1183 395 1 0.7 27.159468711971282 143.7984182669796 21.14805845145826 -2 1 -2
1184 395 2 -0.35 27.979795224841563 143.0010314737816 21.339992592025197 -2 1 -2
1142 381 2 -0.35 52.87883959456505 136.9525346823948 24.808662809862888 5 -2 2
1141 381 1 0.7 52.904422857170914 138.0889152035415 25.04014673551199 5 -2 2
1143 381 2 -0.35 52.93000611977678 139.22529572468818 25.27163066116109 5 -2 2
74 25 2 -0.35 63.85756143870236 147.51324767279246 15.720409734008674 5 1 -1
73 25 1 0.7 64.72936591627396 146.78069485443967 15.941595902672661 5 1 -1
75 25 2 -0.35 65.60117039384555 146.0481420360869 16.162782071336647 5 1 -1
1406 469 2 -0.35 74.91247632592591 141.3465223755486 12.312145817524803 -3 -3 -9
1405 469 1 0.7 74.85048067630282 142.19695794736654 11.525688013434099 -3 -3 -9
1407 469 2 -0.35 74.78848502667974 143.04739351918448 10.739230209343395 -3 -3 -9
239 80 2 -0.35 54.279325759790346 145.6907000388775 26.356563503631165 5 7 -5
1383 461 2 -0.35 116.84438663847538 134.61075617369866 9.061841001375983 -5 -5 2
1381 461 1 0.7 116.07530484779657 135.34610872562493 9.523760716934841 -5 -5 2
1382 461 2 -0.35 115.30622305711776 136.08146127755117 9.9856804324937 -5 -5 2
729 243 2 -0.35 111.9740826215732 0.3234590173258178 6.8733894624707945 0 -1 2
1023 341 2 -0.35 111.43664941527652 135.02488017877917 17.09269973830662 -4 6 -4
1022 341 2 -0.35 112.20683843096728 137.01752144517266 16.187940287640664 -4 6 -4
1021 341 1 0.7 111.8217439231219 136.02120081197592 16.640320012973643 -4 6 -4
1464 488 2 -0.35 116.5305447808276 147.49584792205687 0.16607284774678044 -3 -1 -3
1462 488 1 0.7 116.16419068197713 146.77290690192416 0.9959770323762978 -3 -1 -3
1463 488 2 -0.35 115.79783658312665 146.04996588179145 1.825881217005815 -3 -1 -3
1442 481 2 -0.35 152.69427846908332 152.0044455421607 25.588478801529813 3 4 4
1443 481 2 -0.35 153.0387394246291 152.11944021863903 23.29707685632454 3 4 4
1441 481 1 0.7 152.86650894685621 152.06194288039987 24.442777828927177 3 4 4
281 94 2 -0.35 145.06757249012273 141.80087344208616 19.703957803062394 -1 3 3
280 94 1 0.7 144.8064300452823 142.92649642583805 19.60208768010178 -1 3 3
282 94 2 -0.35 144.54528760044184 144.05211940958995 19.500217557141166 -1 3 3
1350 450 2 -0.35 148.83239603883885 133.43516147342058 2.733741849781352 1 -4 1
1348 450 1 0.7 149.5432503730358 134.32188188502894 2.96614887891518 1 -4 1
1349 450 2 -0.35 150.25410470723273 135.2086022966373 3.1985559080490105 1 -4 1
533 178 2 -0.35 21.882753968347757 8.850019014442474 32.71642310021065 -2 -2 -7
532 178 1 0.7 21.338631684500616 9.525310152944487 33.48682093151492 -2 -2 -7
348 116 2 -0.35 1.7697204377990396 14.69539454679018 29.19367977559832 -6 -4 3
534 178 2 -0.35 20.794509400653475 10.2006012914465 34.25721876281919 -2 -2 -7
346 116 1 0.7 0.8543057326603554 15.08572349882835 29.7897160386012 -6 -4 3
347 116 2 -0.35 158.93889102752166 15.476052450866524 30.38575230160408 -7 -4 3
1035 345 2 -0.35 11.495913393331813 158.65832868425838 29.065145062608934 0 -3 1
821 274 2 -0.35 51.74540347228778 11.068672027638705 27.861022769153983 6 0 5
820 274 1 0.7 51.56718572914739 10.356536007642923 28.759187968354112 6 0 5
822 274 2 -0.35 51.388967986007 9.644399987647141 29.657353167554245 6 0 5
443 148 2 -0.35 38.2833635877675 15.882113654775843 34.87304633926429 4 2 0
442 148 1 0.7 38.31367702474204 16.84787540059511 34.2311854930873 4 2 0
444 148 2 -0.35 38.34399046171658 17.81363714641438 33.589324646910306 4 2 0
426 142 2 -0.35 47.27268791989686 19.7711214680101 44.9139579110957 2 -1 3
424 142 1 0.7 47.91555787502741 19.482539772741568 43.992524882631415 2 -1 3
425 142 2 -0.35 48.55842783015796 19.193958077473035 43.07109185416712 2 -1 3
1498 500 1 0.7 42.417504262053285 19.988911224736142 34.30104174128132 0 -2 -5
1500 500 2 -0.35 41.68812092935086 19.12773160232146 34.032770214814924 0 -2 -5
1499 500 2 -0.35 43.14688759475571 20.850090847150824 34.5693132677477 0 -2 -5
599 200 2 -0.35 56.62109827499075 21.471774119072226 32.33701876661266 -2 -2 -3
598 200 1 0.7 57.68986725481676 21.87941408004804 32.5297946208531 -2 -2 -3
600 200 2 -0.35 58.75863623464277 22.287054041023854 32.722570475093555 -2 -2 -3
709 237 1 0.7 58.10647992977637 4.889660352018522 41.79040720958892 -6 -7 -9
711 237 2 -0.35 58.41260410354988 5.820570590204257 41.169686564957374 -6 -7 -9
710 237 2 -0.35 57.80035575600286 3.958750113832801 42.41112785422047 -6 -7 -9
1379 460 2 -0.35 73.77111489684567 3.3470297379289358 30.390107555176016 4 0 0
1425 475 2 -0.35 69.4272041250551 21.630333092663438 31.455654509977244 -1 -2 2
1378 460 1 0.7 73.6196772576681 3.6459407005931843 31.50065646352633 4 0 0
1423 475 1 0.7 70.20958504721658 20.77432550579978 31.482693442474247 -1 -2 2
1380 460 2 -0.35 73.46823961849053 3.9448516632574324 32.61120537187664 4 0 0
1424 475 2 -0.35 70.99196596937806 19.91831791893612 31.509732374971247 -1 -2 2
832 278 1 0.7 85.13186964388542 11.478733660826284 46.82872883741227 0 -7 4
833 278 2 -0.35 85.43617391942082 11.031255773613566 45.80268670945377 0 -7 4
834 278 2 -0.35 84.82756536835002 11.926211548039001 47.85477096537077 0 -7 4
1104 368 2 -0.35 99.23101853742833 16.591059355139972 40.18732343384738 0 1 3
1102 368 1 0.7 100.01919690601518 16.89441305966186 40.98252868360492 0 1 3
1103 368 2 -0.35 100.80737527460205 17.19776676418375 41.77773393336246 0 1 3
976 326 1 0.7 122.20553602142886 19.23901173271962 29.631265525902155 -1 -8 4
977 326 2 -0.35 121.86723212215325 19.641410689486033 30.6652991575259 -1 -8 4
978 326 2 -0.35 122.54383992070446 18.836612775953206 28.59723189427841 -1 -8 4
702 234 2 -0.35 130.46447707413054 1.1414893967894089 45.33174144239747 2 0 -6
700 234 1 0.7 129.7092845150374 0.5804453144530644 44.653129818296314 2 0 -6
203 68 2 -0.35 5.143898041539891 29.848929592025726 32.14203546639226 1 -6 -2
614 205 2 -0.35 18.425826846874486 34.78695575257015 32.876961945529764 -5 -4 -1
615 205 2 -0.35 16.909023888800196 34.86631011444189 31.123276776628597 -5 -4 -1
613 205 1 0.7 17.667425367837343 34.82663293350602 32.00011936107918 -5 -4 -1
202 68 1 0.7 5.534985317871839 30.223807945779484 33.16776299462613 1 -6 -2
204 68 2 -0.35 5.926072594203787 30.59868629953324 34.19349052286 1 -6 -2
1065 355 2 -0.35 3.560990578229498 47.66014195749882 40.85879817605339 -1 0 0
1063 355 1 0.7 2.9154498978292764 48.6153422500107 40.98713223673471 -1 0 0
1064 355 2 -0.35 2.269909217429055 49.570542542522574 41.11546629741603 -1 0 0
1307 436 2 -0.35 6.521294536061824 47.25229256451125 52.220731888961325 5 -11 -11
1308 436 2 -0.35 8.146283547495704 48.2577442738096 50.90510368426648 5 -11 -11
1306 436 1 0.7 7.333789041778765 47.75501841916042 51.5629177866139 5 -11 -11
210 70 2 -0.35 40.22710658460853 46.341859251428744 49.75626473577028 0 3 -5
209 70 2 -0.35 42.35537189000745 46.75598351729246 48.9308025123754 0 3 -5
208 70 1 0.7 41.291239237307984 46.5489213843606 49.34353362407284 0 3 -5
1157 386 2 -0.35 36.65854795127014 48.22174228010877 41.21387097885217 3 -1 4
1158 386 2 -0.35 36.749474297848785 47.1817915268671 43.28573845297538 3 -1 4
1156 386 1 0.7 36.704011124559464 47.701766903487936 42.249804715913776 3 -1 4
1202 401 2 -0.35 63.424636487468284 33.165022161671054 31.796151606860445 -3 -5 0
1203 401 2 -0.35 61.639905597629856 32.65166376643603 33.18669064223087 -3 -5 0
1201 401 1 0.7 62.53227104254907 32.908342964053546 32.49142112454566 -3 -5 0
935 312 2 -0.35 74.06438973144658 45.48832931060846 40.164655277364936 -9 4 -12
934 312 1 0.7 73.64552000455338 45.79350749980051 39.126862222495355 -9 4 -12
936 312 2 -0.35 73.22665027766016 46.09868568899257 38.08906916762578 -9 4 -12
800 267 2 -0.35 70.39543028379397 34.91766395180602 25.950348443027345 4 -2 -1
799 267 1 0.7 69.54686249626344 34.16168709023339 26.18279563000064 4 -2 -1
625 209 1 0.7 99.27347380774717 49.24878795465887 40.52953401146269 0 -1 -3
627 209 2 -0.35 99.93532496112164 48.42681903602151 41.01111489518864 0 -1 -3
626 209 2 -0.35 98.61162265437268 50.07075687329623 40.04795312773674 0 -1 -3
942 314 2 -0.35 102.68425483386252 42.14095701378036 35.10692899855024 0 -3 -4
940 314 1 0.7 101.75741148178305 42.322858662010105 35.78033317961566 0 -3 -4
941 314 2 -0.35 100.83056812970356 42.504760310239845 36.45373736068108 0 -3 -4
23 8 2 -0.35 91.11704786623623 29.30474487377266 39.5827596380591 -5 0 4
24 8 2 -0.35 89.0063564117222 30.22734577968586 39.85878346356769 -5 0 4
22 8 1 0.7 90.06170213897921 29.76604532672926 39.720771550813396 -5 0 4
121 41 1 0.7 13.906898945529361 64.00442164328359 50.37997482883608 7 -2 2
122 41 2 -0.35 14.601765197178823 64.1160932796733 49.457862938691115 7 -2 2
405 135 2 -0.35 9.700196220588651 59.05970586107938 33.48341129876867 9 -6 2
403 135 1 0.7 8.855392387983203 59.79717193754808 33.1866786405205 9 -6 2
404 135 2 -0.35 8.010588555377755 60.53463801401677 32.88994598227232 9 -6 2
123 41 2 -0.35 13.2120326938799 63.892750006893884 51.302086718981045 7 -2 2
991 331 1 0.7 46.930287039914816 56.09856854564616 29.865728155548076 5 8 2
992 331 2 -0.35 47.327393088542195 56.68098958842733 28.94448306597045 5 8 2
993 331 2 -0.35 46.53318099128744 55.51614750286499 30.786973245125704 5 8 2
32 11 2 -0.35 40.47718526171824 58.127234665543035 33.55144657377467 9 1 3
33 11 2 -0.35 39.00846491599803 57.804686514585775 31.78474817382953 9 1 3
31 11 1 0.7 39.74282508885814 57.965960590064405 32.6680973738021 9 1 3
150 50 2 -0.35 50.965987914281214 77.24017172116412 44.978880481377224 -3 0 0
148 50 1 0.7 51.51679389313945 76.51931677433204 45.70177806698844 -3 0 0
149 50 2 -0.35 52.067599871997686 75.79846182749996 46.42467565259965 -3 0 0
1076 359 2 -0.35 40.816734098417776 65.86168075717144 50.12854674664737 -4 -2 -4
1075 359 1 0.7 41.066419956295235 64.84536663040333 50.62890918339316 -4 -2 -4
1077 359 2 -0.35 41.316105814172694 63.82905250363523 51.12927162013895 -4 -2 -4
107 36 2 -0.35 46.38575796833648 55.587283414655545 53.907029455705704 2 3 -1
113 38 2 -0.35 65.24131848695437 72.61615883155996 44.78788287824317 4 1 -2
112 38 1 0.7 65.94225613165538 71.82570626232895 45.26691435323943 4 1 -2
114 38 2 -0.35 66.64319377635638 71.03525369309794 45.74594582823569 4 1 -2
1164 388 2 -0.35 73.18929007263995 75.80363872400486 33.99457692557779 1 0 4
1162 388 1 0.7 72.15317233867694 75.52116543235029 33.556092170005975 1 0 4
1163 388 2 -0.35 71.11705460471394 75.2386921406957 33.117607414434154 1 0 4
1229 410 2 -0.35 99.16062724292921 53.96032791536339 42.663723702072275 1 1 0
1228 410 1 0.7 100.1032159945417 54.636166645059085 42.68291893001475 1 1 0
1230 410 2 -0.35 101.0458047461542 55.31200537475477 42.70211415795722 1 1 0
476 159 2 -0.35 94.38952073490294 67.67677613783482 31.911450393290487 -9 -4 3
475 159 1 0.7 93.55506521769439 68.48254495115647 31.90691064889718 -9 -4 3
477 159 2 -0.35 92.72060970048584 69.28831376447813 31.902370904503876 -9 -4 3
417 139 2 -0.35 88.56983379914074 71.09638662448913 51.0670842288984 0 0 -5
415 139 1 0.7 89.34403395267276 71.19597459602429 50.20900710055001 0 0 -5
416 139 2 -0.35 90.1182341062048 71.29556256755943 49.35092997220163 0 0 -5
674 225 2 -0.35 112.64373644407792 70.24986896162825 38.56973371253787 -2 -2 9
675 225 2 -0.35 114.7534796465885 71.01055030990852 37.97580820724874 -2 -2 9
673 225 1 0.7 113.6986080453332 70.63020963576838 38.2727709598933 -2 -2 9
1293 431 2 -0.35 123.22344633520552 73.52709212544396 47.85122550646531 5 2 7
1291 431 1 0.7 124.33908878759279 73.34269490949544 48.10995236085206 5 2 7
1292 431 2 -0.35 125.45473123998006 73.15829769354691 48.368679215238814 5 2 7
154 52 1 0.7 111.72316462085122 71.173537550511 41.756243986421474 7 0 1
155 52 2 -0.35 110.57541927341087 71.01140439210232 41.711595846783325 7 0 1
156 52 2 -0.35 112.87090996829157 71.33567070891966 41.800892126059615 7 0 1
4 2 1 0.7 116.65040555536676 64.77630622411766 33.32043362897113 0 1 -4
5 2 2 -0.35 117.33942869010771 65.21900217069629 34.14193677484188 0 1 -4
6 2 2 -0.35 115.96138242062581 64.33361027753902 32.49893048310038 0 1 -4
369 123 2 -0.35 115.51181302964865 80.29151593186799 26.108582096918283 2 -6 -3
367 123 1 0.7 115.55828498079875 80.33491268946459 27.266838147706025 2 -6 -3
368 123 2 -0.35 115.60475693194884 80.37830944706118 28.425094198493767 2 -6 -3
989 330 2 -0.35 149.9476434017836 60.95543419600439 34.06881216962543 6 11 1
988 330 1 0.7 151.03830317455723 60.62380519743977 33.8541415676301 6 11 1
990 330 2 -0.35 152.12896294733085 60.29217619887516 33.63947096563477 6 11 1
1181 394 2 -0.35 156.48652315712835 57.136463334482045 27.610016645264437 -6 3 4
50 17 2 -0.35 147.75838723124053 60.53296503545991 37.63752742441006 -3 4 6
49 17 1 0.7 148.85529159666044 60.747928034869524 37.947675327849204 -3 4 6
51 17 2 -0.35 149.9521959620803 60.96289103427914 38.25782323128835 -3 4 6
1180 394 1 0.7 156.00575234270133 57.699212109646396 28.50319817219253 -6 3 4
1182 394 2 -0.35 155.52498152827434 58.26196088481075 29.396379699120622 -6 3 4
212 71 2 -0.35 145.94886232150043 76.10555928596274 42.43268793987946 0 -2 0
211 71 1 0.7 147.083974835778 76.14838455433225 42.19755908941989 0 -2 0
213 71 2 -0.35 148.2190873500556 76.19120982270178 41.96243023896033 0 -2 0
654 218 2 -0.35 134.75731259915548 74.1803550647863 33.44500848910248 0 -7 -3
652 218 1 0.7 135.15230745226665 75.20919174823959 33.8070501231708 0 -7 -3
653 218 2 -0.35 135.54730230537783 76.23802843169288 34.169091757239116 0 -7 -3
660 220 2 -0.35 16.520717733257882 84.09804529545961 36.51873018003162 -2 3 -1
658 220 1 0.7 15.514969203609096 84.26074273798547 37.07334665770296 -2 3 -1
659 220 2 -0.35 14.50922067396031 84.42344018051132 37.62796313537431 -2 3 -1
105 35 2 -0.35 10.809248126705288 82.76417872226958 35.78615913519102 3 -6 3
103 35 1 0.7 10.890351382282656 81.80607147319803 36.43504491960388 3 -6 3
104 35 2 -0.35 10.971454637860024 80.8479642241265 37.08393070401674 3 -6 3
1052 351 2 -0.35 48.08663849414475 97.36942284589584 27.745491528651606 -2 3 -2
1051 351 1 0.7 48.703725056055774 97.87035059702504 28.590403099915786 -2 3 -2
1053 351 2 -0.35 49.32081161796679 98.37127834815422 29.435314671179967 -2 3 -2
407 136 2 -0.35 28.85332441767044 88.46734659577841 43.943508827369264 0 1 -1
406 136 1 0.7 29.282480291784168 88.50743343386031 42.86656023011594 0 1 -1