LAMMPS (29 Aug 2024 - Update 1)
  using 1 OpenMP thread(s) per MPI task
package gpu 1 gpuID 0
# GCMC for CO2 molecular fluid, rigid/small/nvt dynamics
# Rigid CO2 TraPPE model
# [Potoff and J.I. Siepmann, Vapor-liquid equilibria of
# mixtures containing alkanes, carbon dioxide and
# nitrogen AIChE J., 47,1676-1682 (2001)].

# global model settings

units           real
atom_style      full
boundary        p p p
pair_style      lj/cut/coul/long  12
pair_modify     mix arithmetic shift yes
kspace_style    pppm 1.0e-4
bond_style      harmonic
angle_style     harmonic
neigh_modify    one 4000

# box, start molecules on simple cubic lattice
region          mbox block 0 ${lbox} 0 ${lbox} 0 ${lbox} units box
region          mbox block 0 159 0 ${lbox} 0 ${lbox} units box
region          mbox block 0 159 0 159 0 ${lbox} units box
region          mbox block 0 159 0 159 0 159 units box
create_box      2 mbox                                       bond/types 1                                angle/types 1                               extra/bond/per/atom 2                       extra/angle/per/atom 1                      extra/special/per/atom 2
Created orthogonal box = (0 0 0) to (159 159 159)
  1 by 1 by 1 MPI processor grid
molecule        co2mol ../CO2.txt
Read molecule template co2mol:
# CO2 molecule file. TraPPE model.
  1 molecules
  0 fragments
  3 atoms with max type 2
  2 bonds with max type 1
  1 angles with max type 1
  0 dihedrals with max type 0
  0 impropers with max type 0
create_atoms   	0 random ${nmols} 34578 mbox mol co2mol 464563 overlap 1.2
create_atoms   	0 random 500 34578 mbox mol co2mol 464563 overlap 1.2
Created 1500 atoms
  using lattice units in orthogonal box = (0 0 0) to (159 159 159)
  create_atoms CPU = 0.007 seconds

# rigid CO2 TraPPE model

pair_coeff      1   1  0.053649   2.800
pair_coeff      2   2  0.156973   3.050
bond_coeff      1       0       1.16
angle_coeff     1       0       180

# masses

mass 1 12.0107
mass 2 15.9994

write_data init_conf.data  pair ij
System init for write_data ...
PPPM initialization ...
  using 12-bit tables for long-range coulomb (src/kspace.cpp:342)
  G vector (1/distance) = 0.15623461
  grid = 30 30 30
  stencil order = 5
  estimated absolute RMS force accuracy = 0.038174764
  estimated relative force accuracy = 0.00011496217
  using double precision FFTW3
  3d grid and FFT values/proc = 42875 27000
Generated 1 of 1 mixed pair_coeff terms from arithmetic mixing rule

# MD settings

group           co2 type 1 2
1500 atoms in group co2
velocity       	all create 300 54654
timestep        0.25

# rigid constraints with thermostat
fix             myrigidnvt co2 rigid/nvt molecule temp 300 300 $(100*dt)
fix             myrigidnvt co2 rigid/nvt molecule temp 300 300 25
  500 rigid bodies with 1500 atoms

thermo 1000
thermo_style custom step temp density press ke pe etotal


variable    mvol equal vol
variable    mden equal density
variable	mtmp equal temp
variable    mpre equal press

fix mydat all ave/time 1 4000 4000 v_mtmp v_mden v_mpre file statistics.dat ## every 1ps

run 4000000 ## 1ns

CITE-CITE-CITE-CITE-CITE-CITE-CITE-CITE-CITE-CITE-CITE-CITE-CITE

Your simulation uses code contributions which should be cited:

- GPU package (short-range, long-range and three-body potentials): doi:10.1016/j.cpc.2010.12.021, doi:10.1016/j.cpc.2011.10.012, doi:10.1016/j.cpc.2013.08.002, doi:10.1016/j.commatsci.2014.10.068, doi:10.1016/j.cpc.2016.10.020, doi:10.3233/APC200086

@Article{Brown11,
 author = {W. M. Brown and P. Wang and S. J. Plimpton and A. N. Tharrington},
 title = {Implementing Molecular Dynamics on Hybrid High Performance Computers---Short Range Forces},
 journal = {Comput.\ Phys.\ Commun.},
 year =    2011,
 volume =  182,
 pages =   {898--911},
 doi =     {10.1016/j.cpc.2010.12.021}
}

@Article{Brown12,
 author = {W. M. Brown and A. Kohlmeyer and S. J. Plimpton and A. N. Tharrington},
 title = {Implementing Molecular Dynamics on Hybrid High Performance Computers - Particle-Particle Particle-Mesh},
 journal = {Comput.\ Phys.\ Commun.},
 year =    2012,
 volume =  183,
 doi =     {10.1016/j.cpc.2011.10.012},
 pages =   {449--459}
}

@Article{Brown13,
 author = {W. M. Brown and Y. Masako},
 title = {Implementing Molecular Dynamics on Hybrid High Performance Computers---Three-Body Potentials},
 journal = {Comput.\ Phys.\ Commun.},
 year =    2013,
 volume =  184,
 pages =   {2785--2793},
 doi =     {10.1016/j.cpc.2013.08.002},
}

@Article{Trung15,
 author = {T. D. Nguyen and S. J. Plimpton},
 title = {Accelerating Dissipative Particle Dynamics Simulations for Soft Matter Systems},
 journal = {Comput.\ Mater.\ Sci.},
 year =    2015,
 doi =     {10.1016/j.commatsci.2014.10.068},
 volume =  100,
 pages =   {173--180}
}

@Article{Trung17,
 author = {T. D. Nguyen},
 title = {{GPU}-Accelerated {T}ersoff Potentials for Massively Parallel
    Molecular Dynamics Simulations},
 journal = {Comput.\ Phys.\ Commun.},
 year =    2017,
 doi =     {10.1016/j.cpc.2016.10.020},
 volume =  212,
 pages =   {113--122}
}

@inproceedings{Nikolskiy19,
 author = {V. Nikolskiy and V. Stegailov},
 title = {{GPU} Acceleration of Four-Site Water Models in {LAMMPS}},
 booktitle = {Proceedings of the International Conference on Parallel
    Computing (ParCo 2019), Prague, Czech Republic},
 doi =     {10.3233/APC200086},
 year =    2019
}

CITE-CITE-CITE-CITE-CITE-CITE-CITE-CITE-CITE-CITE-CITE-CITE-CITE

PPPM initialization ...
  using 12-bit tables for long-range coulomb (src/kspace.cpp:342)
  G vector (1/distance) = 0.15623461
  grid = 30 30 30
  stencil order = 5
  estimated absolute RMS force accuracy = 0.038174764
  estimated relative force accuracy = 0.00011496217
  using double precision FFTW3
  3d grid and FFT values/proc = 42875 27000
Generated 1 of 1 mixed pair_coeff terms from arithmetic mixing rule
Per MPI rank memory allocation (min/avg/max) = 11.37 | 11.37 | 11.37 Mbytes
   Step          Temp         Density         Press          KinEng         PotEng         TotEng    
         0   307.69091      0.0090902144   66.18133       763.38962      34074.911      34838.301    
      1000   306.49488      0.0090902144   7.5938464      760.42224     -11.756308      748.66593    
      2000   305.22673      0.0090902144   4.2674631      757.27594     -15.66225       741.61369    
      3000   304.84865      0.0090902144   5.0087991      756.33791     -16.740587      739.59733    
      4000   293.13264      0.0090902144   4.9849467      727.27017     -17.958049      709.31212    
      5000   297.10055      0.0090902144   4.3249179      737.11464     -21.768384      715.34626    
      6000   309.29097      0.0090902144   6.5749563      767.35943     -24.055284      743.30414    
      7000   301.12694      0.0090902144   3.2995744      747.10424     -25.846186      721.25805    
      8000   293.88851      0.0090902144   5.6169686      729.14549     -30.589246      698.55624    
      9000   318.91305      0.0090902144   11.646303      791.23206     -29.288635      761.94342    
     10000   305.43695      0.0090902144   5.8032612      757.7975      -23.384992      734.4125     
     11000   290.14454      0.0090902144   4.3093955      719.85659     -33.703891      686.1527     
     12000   293.18703      0.0090902144   6.6312685      727.40511     -35.4611        691.94401    
     13000   299.69352      0.0090902144   9.3203129      743.54789     -34.799959      708.74793    
     14000   304.40213      0.0090902144   5.1357132      755.23007     -35.810717      719.41935    
     15000   302.63172      0.0090902144   4.6114232      750.83763     -46.210723      704.62691    
     16000   307.12155      0.0090902144   5.4097223      761.97703     -46.75195       715.22508    
     17000   292.57223      0.0090902144   4.15785        725.87978     -43.170157      682.70962    
     18000   295.33459      0.0090902144   3.7163816      732.73325     -43.366118      689.36713    
     19000   301.17009      0.0090902144   7.0176271      747.21129     -42.800851      704.41044    
     20000   301.14786      0.0090902144  -2.3913123      747.15613     -45.625099      701.53103    
     21000   293.90114      0.0090902144   5.2287351      729.17683     -48.07691       681.09993    
     22000   306.4288       0.0090902144   4.4937134      760.25829     -50.446315      709.81198    
     23000   311.39388      0.0090902144   3.918661       772.57681     -56.527948      716.04886    
     24000   299.88667      0.0090902144   5.3138005      744.0271      -54.42174       689.60536    
     25000   307.22446      0.0090902144   3.0989697      762.23236     -54.811816      707.42054    
     26000   301.09062      0.0090902144   2.70772        747.01413     -52.842498      694.17163    
     27000   297.03021      0.0090902144   8.9907362      736.94013     -56.07786       680.86227    
     28000   306.55783      0.0090902144   6.1864485      760.57842     -55.971236      704.60719    
     29000   302.91012      0.0090902144   5.208644       751.52836     -57.289165      694.2392     
     30000   295.81831      0.0090902144   4.5760468      733.93337     -62.158288      671.77508    
     31000   292.41574      0.0090902144   5.7300439      725.49152     -62.063028      663.4285     
     32000   314.10122      0.0090902144   0.23038834     779.29378     -62.914438      716.37934    
     33000   295.28747      0.0090902144   8.2075591      732.61636     -59.753652      672.86271    
     34000   297.37957      0.0090902144   4.6941273      737.8069      -63.532356      674.27454    
     35000   299.72689      0.0090902144   2.4473573      743.63069     -60.759931      682.87075    
     36000   299.24129      0.0090902144   5.9127226      742.4259      -61.931361      680.49453    
     37000   294.69467      0.0090902144   5.0946945      731.1456      -65.321203      665.82439    
     38000   308.98877      0.0090902144   3.8408806      766.60966     -63.894182      702.71548    
     39000   309.0522       0.0090902144   4.7453047      766.76703     -74.425963      692.34107    
     40000   302.78224      0.0090902144   0.90511905     751.21109     -72.435754      678.77533    
     41000   308.38755      0.0090902144   3.8609802      765.11801     -72.736657      692.38135    
     42000   295.2527       0.0090902144   4.0888554      732.53008     -75.07193       657.45815    
     43000   288.75158      0.0090902144   5.082018       716.40062     -70.398861      646.00176    
     44000   297.84861      0.0090902144   6.3908575      738.9706      -72.044775      666.92582    
     45000   308.69125      0.0090902144   2.0883374      765.87151     -76.770587      689.10092    
     46000   300.85789      0.0090902144   4.2747338      746.43671     -78.811202      667.6255     
     47000   298.49074      0.0090902144   8.7747189      740.56376     -77.075886      663.48787    
     48000   300.89872      0.0090902144   5.4919855      746.53802     -79.251863      667.28615    
     49000   290.14392      0.0090902144   4.5330861      719.85506     -78.209423      641.64564    
     50000   284.48125      0.0090902144   4.5152195      705.80582     -76.137836      629.66798    
     51000   305.91051      0.0090902144   4.93067        758.9724      -76.828671      682.14373    
     52000   311.01004      0.0090902144   4.7248172      771.62447     -78.173251      693.45122    
     53000   295.85093      0.0090902144   3.9609195      734.0143      -83.891409      650.12289    
     54000   286.08938      0.0090902144   7.8293814      709.79564     -76.6274        633.16824    
     55000   299.62508      0.0090902144   4.7445012      743.37809     -73.603751      669.77434    
     56000   308.27938      0.0090902144   4.6574178      764.84965     -76.384683      688.46496    
     57000   307.76528      0.0090902144   2.4906828      763.57413     -72.810299      690.76383    
     58000   282.61569      0.0090902144   7.8144843      701.17732     -76.879253      624.29807    
     59000   295.02635      0.0090902144   8.151456       731.96852     -75.718654      656.24986    
     60000   321.52007      0.0090902144   2.8348083      797.70016     -74.622626      723.07754    
     61000   299.94943      0.0090902144   3.5106808      744.18281     -77.372121      666.81069    
     62000   288.18077      0.0090902144   6.7876949      714.98444     -76.445183      638.53925    
     63000   292.63832      0.0090902144   3.0706649      726.04373     -75.545897      650.49783    
     64000   302.0409       0.0090902144   4.2798921      749.3718      -76.539677      672.83212    
     65000   311.77208      0.0090902144   5.2495164      773.51512     -76.056819      697.4583     
     66000   301.31986      0.0090902144   5.2405246      747.58287     -73.421344      674.16153    
     67000   296.90101      0.0090902144   7.1644021      736.61959     -85.783504      650.83608    
     68000   313.33306      0.0090902144   10.697823      777.38796     -86.178042      691.20992    
     69000   297.4125       0.0090902144   1.4811212      737.8886      -83.916339      653.97226    
     70000   301.02113      0.0090902144   3.6438285      746.84173     -85.779387      661.06234    
     71000   298.49819      0.0090902144   8.5736567      740.58223     -88.487987      652.09424    
     72000   309.48249      0.0090902144   2.1080283      767.83458     -83.025245      684.80933    
     73000   290.24099      0.0090902144   4.1489095      720.09589     -82.310948      637.78494    
     74000   294.02337      0.0090902144   3.0856726      729.4801      -83.658683      645.82141    
     75000   302.97852      0.0090902144   9.7259825      751.69806     -85.051496      666.64656    
     76000   297.38512      0.0090902144   2.5584833      737.82069     -86.975327      650.84536    
     77000   304.83507      0.0090902144   3.7826721      756.30422     -79.008093      677.29612    
     78000   305.79722      0.0090902144   7.4150052      758.69134     -84.514928      674.17642    
     79000   284.64729      0.0090902144   4.5633587      706.21778     -81.023582      625.1942     
     80000   295.53612      0.0090902144   5.0462683      733.23325     -79.116435      654.11682    
     81000   298.87797      0.0090902144   4.5485996      741.52449     -81.175673      660.34881    
     82000   302.36433      0.0090902144   5.570793       750.17424     -85.788227      664.38601    
     83000   312.0724       0.0090902144   5.3487208      774.26024     -87.423371      686.83687    
     84000   296.78416      0.0090902144   6.2874337      736.32968     -87.283298      649.04638    
     85000   286.44524      0.0090902144   3.3307537      710.67854     -86.787853      623.89069    
     86000   296.01462      0.0090902144   4.0945724      734.42043     -88.562503      645.85793    
     87000   301.76628      0.0090902144   4.6921368      748.69046     -89.203755      659.48671    
     88000   312.62937      0.0090902144   1.8089609      775.64209     -90.314373      685.32771    
     89000   309.79858      0.0090902144   6.2752966      768.61882     -88.25661       680.36221    
     90000   299.66177      0.0090902144   6.1384622      743.46911     -88.956911      654.5122     
     91000   285.77872      0.0090902144  -0.11937354     709.02489     -89.802771      619.22212    
     92000   318.40113      0.0090902144   2.0899619      789.96197     -88.049581      701.91239    
     93000   299.94851      0.0090902144   6.4787932      744.18052     -85.841855      658.33866    
     94000   295.05052      0.0090902144   0.37663483     732.02848     -88.251554      643.77692    
     95000   296.6225       0.0090902144   3.6998237      735.92859     -88.941296      646.9873     
     96000   282.15289      0.0090902144   11.958034      700.0291      -88.5702        611.4589     
     97000   293.68019      0.0090902144   5.630294       728.62864     -94.503527      634.12511    
     98000   305.96445      0.0090902144   3.6495521      759.10625     -95.235425      663.87082    
     99000   296.62503      0.0090902144   4.1905666      735.93488     -92.855035      643.07985    
    100000   301.1805       0.0090902144   8.352279       747.23712     -88.335714      658.9014     
    101000   289.93506      0.0090902144   4.7096638      719.33687     -88.251431      631.08544    
    102000   298.10721      0.0090902144   3.1444936      739.61221     -91.146015      648.46619    
    103000   304.96294      0.0090902144   2.2389377      756.62146     -91.193254      665.42821    
    104000   300.45098      0.0090902144   4.9744923      745.42716     -95.323386      650.10378    
    105000   303.35186      0.0090902144   7.1963786      752.62432     -94.380275      658.24405    
    106000   296.43687      0.0090902144   5.4257043      735.46803     -91.720684      643.74735    
    107000   292.91238      0.0090902144   3.8972064      726.72369     -93.469663      633.25403    
    108000   312.81312      0.0090902144   8.6832503      776.09796     -92.732433      683.36553    
    109000   305.27081      0.0090902144   4.5625725      757.38529     -96.681701      660.70359    
    110000   312.81083      0.0090902144   7.0882035      776.0923      -95.763306      680.32899    
    111000   297.86327      0.0090902144   6.532345       739.00699     -96.306463      642.70053    
    112000   294.80933      0.0090902144   4.6693241      731.43006     -97.00098       634.42908    
    113000   303.47577      0.0090902144   4.8512918      752.93176     -93.052472      659.87929    
    114000   301.23398      0.0090902144   2.8142117      747.36982     -92.651672      654.71814    
    115000   298.11397      0.0090902144   3.3057656      739.62897     -97.72529       641.90368    
    116000   291.461        0.0090902144   7.3189746      723.12278     -97.776361      625.34641    
    117000   299.28862      0.0090902144   7.1782695      742.54331     -93.233199      649.31011    
    118000   307.07192      0.0090902144  -2.3016766      761.8539      -104.76588      657.08802    
    119000   295.81027      0.0090902144   2.8157411      733.91344     -102.36613      631.5473     
    120000   293.96641      0.0090902144   8.4847996      729.33878     -97.503596      631.83518    
    121000   293.6976       0.0090902144   3.8429621      728.67183     -95.602251      633.06958    
    122000   303.70149      0.0090902144  -1.2372184      753.49177     -94.522564      658.96921    
    123000   298.67568      0.0090902144   6.803238       741.0226      -95.201672      645.82092    
    124000   281.74928      0.0090902144   9.5304078      699.02773     -100.30568      598.72205    
    125000   303.87455      0.0090902144   12.2831        753.92114     -103.24026      650.68088    
    126000   296.22876      0.0090902144   3.9481317      734.95173     -96.479768      638.47196    
    127000   299.01284      0.0090902144   5.7205345      741.85911     -94.707105      647.15201    
    128000   310.75237      0.0090902144   5.0643659      770.9852      -93.899423      677.08578    
    129000   300.16671      0.0090902144   5.1421177      744.72189     -94.160939      650.56095    
    130000   300.81042      0.0090902144   4.3937052      746.31895     -100.71175      645.60721    
    131000   302.11035      0.0090902144   3.8906013      749.54411     -100.68676      648.85735    
    132000   276.39831      0.0090902144   5.7336476      685.75183     -97.58344       588.16839    
    133000   311.81488      0.0090902144   5.2388718      773.62131     -90.646028      682.97528    
    134000   297.29896      0.0090902144   4.6182059      737.60691     -94.677229      642.92968    
    135000   299.48692      0.0090902144   3.7909246      743.03529     -95.675732      647.35956    
    136000   303.45358      0.0090902144   5.5073902      752.87669     -98.481832      654.39486    
    137000   305.06403      0.0090902144   6.287084       756.87227     -97.558469      659.3138     
    138000   302.93562      0.0090902144   3.0968163      751.59163     -96.631058      654.96057    
    139000   287.99934      0.0090902144   4.9795098      714.53429     -99.495312      615.03898    
    140000   300.38692      0.0090902144   6.3762522      745.26822     -98.075422      647.1928     
    141000   297.09517      0.0090902144   10.626043      737.1013      -102.10498      634.99632    
    142000   303.24693      0.0090902144   2.543752       752.36399     -101.80447      650.55951    
    143000   297.02699      0.0090902144   1.8379634      736.93215     -106.19052      630.74163    
    144000   301.95071      0.0090902144   4.8561961      749.14804     -104.05111      645.09692    
    145000   306.52221      0.0090902144   6.4916299      760.49005     -108.8683       651.62175    
    146000   304.77913      0.0090902144   4.7697392      756.16543     -108.36756      647.79787    
    147000   294.16965      0.0090902144   3.6811698      729.84301     -102.45696      627.38605    
    148000   276.61742      0.0090902144   5.5003254      686.29543     -89.568297      596.72714    
    149000   286.25497      0.0090902144   5.8427875      710.20647     -107.04314      603.16334    
    150000   302.75729      0.0090902144   9.9603012      751.14919     -114.91955      636.22964    
    151000   301.57777      0.0090902144   2.4943694      748.22276     -111.46316      636.7596     
    152000   294.29009      0.0090902144   3.7404992      730.14183     -108.37801      621.76382    
    153000   296.417        0.0090902144   3.8477796      735.41875     -106.57712      628.84163    
    154000   288.11013      0.0090902144   3.2275227      714.80918     -104.64667      610.16251    
    155000   306.87622      0.0090902144   4.7626535      761.36836     -106.48468      654.88368    
    156000   322.24168      0.0090902144   8.6659018      799.49048     -100.11283      699.37765    
    157000   282.48521      0.0090902144   5.0009234      700.8536      -106.71714      594.13646    
    158000   295.95973      0.0090902144   5.4707347      734.28424     -102.66641      631.61783    
    159000   317.39032      0.0090902144   5.6237732      787.45414     -103.38576      684.06838    
    160000   302.55738      0.0090902144   4.0549652      750.65321     -98.415374      652.23783    
    161000   291.70324      0.0090902144   3.6175244      723.72378     -101.61657      622.10721    
    162000   305.26918      0.0090902144   9.8325407      757.38124     -104.03906      653.34217    
    163000   307.11618      0.0090902144   5.1520542      761.96371     -106.40421      655.5595     
    164000   299.66018      0.0090902144   5.0225772      743.46518     -108.69652      634.76865    
    165000   293.73907      0.0090902144   4.2814424      728.77473     -108.3742       620.40053    
    166000   280.12819      0.0090902144   4.0925802      695.00575     -109.27987      585.72589    
    167000   304.67188      0.0090902144   0.086392187    755.89933     -106.33294      649.5664     
    168000   308.6661       0.0090902144   10.528266      765.80909     -108.75972      657.04937    
    169000   303.1202       0.0090902144   8.3148722      752.04958     -106.20909      645.84048    
    170000   294.48083      0.0090902144   3.917438       730.61505     -107.57995      623.0351     
    171000   300.32626      0.0090902144   1.0107127      745.11772     -106.81014      638.30759    
    172000   305.74316      0.0090902144   4.2076719      758.55721     -101.85976      656.69745    
    173000   305.42413      0.0090902144   6.493871       757.76568     -108.30007      649.46561    
    174000   304.19241      0.0090902144  -2.0051592      754.70975     -108.48069      646.22906    
    175000   294.58879      0.0090902144   2.4724868      730.88292     -104.12763      626.75529    
    176000   305.45238      0.0090902144   6.1714194      757.83576     -105.2377       652.59807    
    177000   310.98338      0.0090902144   5.755641       771.55833     -106.31944      665.23889    
    178000   299.91751      0.0090902144   8.1280046      744.1036      -107.25931      636.84429    
    179000   293.43755      0.0090902144   5.2351813      728.02664     -104.03906      623.98758    
    180000   294.74226      0.0090902144   5.4152403      731.26368     -102.22626      629.03742    
    181000   299.99941      0.0090902144   0.93251472     744.3068      -102.99882      641.30798    
    182000   310.23642      0.0090902144   5.5604767      769.7051      -104.00534      665.69977    
    183000   291.96106      0.0090902144   5.6247209      724.36344     -106.66943      617.69401    
    184000   291.07427      0.0090902144   4.5367231      722.1633      -107.43367      614.72963    
    185000   300.3857       0.0090902144   3.4582735      745.26521     -108.81401      636.4512     
    186000   308.64103      0.0090902144   5.7441943      765.74691     -104.79048      660.95643    
    187000   289.95823      0.0090902144   5.6954051      719.39435     -106.87046      612.5239     
    188000   292.16241      0.0090902144   4.1491354      724.86299     -98.625339      626.23765    
    189000   307.76575      0.0090902144   2.4131482      763.5753      -100.51013      663.06517    
    190000   322.67896      0.0090902144   4.832787       800.57538     -105.42384      695.15154    
    191000   298.40139      0.0090902144   3.2623293      740.34208     -104.27844      636.06365    
    192000   287.14732      0.0090902144   4.3747375      712.42041     -103.89606      608.52435    
    193000   312.62779      0.0090902144   4.7721787      775.63817     -108.1516       667.48657    
    194000   301.81393      0.0090902144   8.5043446      748.80869     -109.53328      639.27541    
    195000   293.88484      0.0090902144   5.2835643      729.13639     -109.42692      619.70947    
    196000   301.23396      0.0090902144   4.5298763      747.36977     -106.35448      641.01528    
    197000   305.76705      0.0090902144   1.3723642      758.61648     -104.81238      653.8041     
    198000   304.86756      0.0090902144   6.6098026      756.38482     -107.68927      648.69556    
    199000   292.00391      0.0090902144   7.4364996      724.46975     -109.82426      614.6455     
    200000   290.12439      0.0090902144   3.4099829      719.80661     -103.95391      615.8527     
    201000   304.93784      0.0090902144   0.4775843      756.55918     -102.98042      653.57876    
    202000   297.40388      0.0090902144   5.4068296      737.86721     -105.08137      632.78585    
    203000   292.24615      0.0090902144   7.5161228      725.07074     -102.8041       622.26664    
    204000   295.20589      0.0090902144   5.54049        732.41395     -102.80096      629.61299    
    205000   295.10057      0.0090902144   1.9449212      732.15264     -99.786889      632.36575    
    206000   307.10071      0.0090902144   3.6821638      761.92533     -100.1489       661.77643    
    207000   293.38518      0.0090902144   6.7236119      727.89672     -97.391511      630.50521    
    208000   290.04398      0.0090902144   1.9484197      719.60711     -100.34953      619.25758    
    209000   307.39915      0.0090902144   3.5555203      762.66578     -95.553639      667.11214    
    210000   303.35981      0.0090902144   7.2501755      752.64405     -94.442423      658.20162    
    211000   292.47602      0.0090902144   3.4624145      725.64107     -95.293832      630.34723    
    212000   312.66667      0.0090902144   3.6171344      775.73463     -94.069859      681.66477    
    213000   295.65619      0.0090902144   5.6146672      733.53116     -100.00335      633.52781    
    214000   291.68367      0.0090902144   5.6997752      723.67524     -95.643415      628.03182    
    215000   309.95799      0.0090902144   2.9411441      769.01432     -103.47895      665.53537    
    216000   311.86468      0.0090902144   5.5919869      773.74488     -109.57023      664.17465    
    217000   312.09415      0.0090902144   10.323894      774.31419     -103.60871      670.70548    
    218000   295.73712      0.0090902144   6.3463838      733.73195     -98.412396      635.31956    
    219000   304.44065      0.0090902144   4.3025319      755.32564     -105.47529      649.85035    
    220000   296.11627      0.0090902144   4.2349679      734.67264     -102.98741      631.68523    
    221000   305.65613      0.0090902144   3.9137097      758.34128     -98.709927      659.63135    
    222000   319.9851       0.0090902144   4.6609007      793.89185     -99.704691      694.18716    
    223000   295.9184       0.0090902144   6.9727209      734.18171     -105.1174       629.0643     
    224000   292.29035      0.0090902144   2.5771611      725.18041     -98.772025      626.40839    
    225000   305.99989      0.0090902144   4.6912138      759.19416     -96.419599      662.77456    
    226000   297.27504      0.0090902144   4.9490871      737.54756     -96.749607      640.79795    
    227000   296.84172      0.0090902144   3.1677254      736.47248     -98.227797      638.24468    
    228000   301.74777      0.0090902144   5.1433853      748.64454     -98.142898      650.50164    
    229000   300.7969       0.0090902144   4.5074849      746.2854      -97.171605      649.1138     
    230000   297.08917      0.0090902144   4.7807403      737.08643     -95.896544      641.18989    
    231000   296.33604      0.0090902144   4.7206413      735.21789     -97.019568      638.19833    
    232000   303.27123      0.0090902144   5.7910553      752.42428     -98.080919      654.34336    
    233000   298.24211      0.0090902144   4.8019078      739.9469      -99.001983      640.94492    
    234000   286.69057      0.0090902144   4.4264264      711.2872      -96.571205      614.71599    
    235000   294.29926      0.0090902144   4.6373421      730.16459     -98.385068      631.77952    
    236000   315.11165      0.0090902144   4.9981583      781.80068     -94.782274      687.0184     
    237000   306.93343      0.0090902144   2.8169145      761.51029     -99.127587      662.3827     
    238000   292.9528       0.0090902144   4.8170121      726.82398     -99.891962      626.93201    
    239000   306.64418      0.0090902144   5.2514008      760.79267     -96.213786      664.57888    
    240000   310.54961      0.0090902144   4.5287455      770.48213     -98.740167      671.74197    
    241000   293.51137      0.0090902144   4.203832       728.2098      -105.98347      622.22633    
    242000   305.33342      0.0090902144   4.8226644      757.54064     -102.90632      654.63432    
    243000   309.30824      0.0090902144   4.7096117      767.40228     -101.41928      665.98299    
    244000   310.65822      0.0090902144   5.9733488      770.75161     -102.78401      667.9676     
    245000   293.86869      0.0090902144   8.3667881      729.09632     -95.607903      633.48842    
    246000   287.96368      0.0090902144  -0.37421267     714.44582     -100.06949      614.37633    
    247000   310.53876      0.0090902144  -3.2222421      770.45523     -100.92307      669.53216    
    248000   310.80347      0.0090902144   7.6089231      771.11198     -97.525305      673.58667    
    249000   288.22373      0.0090902144   11.954575      715.09101     -97.464838      617.62618    
    250000   293.77964      0.0090902144  -1.6214801      728.87538     -99.327162      629.54822    
    251000   310.72325      0.0090902144   2.560282       770.91295     -94.048918      676.86403    
    252000   304.85478      0.0090902144   15.828548      756.3531      -96.430714      659.92239    
    253000   295.62783      0.0090902144   6.6213701      733.46079     -93.720044      639.74074    
    254000   293.04469      0.0090902144  -6.9026323      727.05194     -96.862395      630.18955    
    255000   307.22246      0.0090902144   6.0555381      762.22739     -91.669527      670.55787    
    256000   312.58367      0.0090902144   8.1713074      775.5287      -89.718592      685.8101     
    257000   307.95331      0.0090902144   9.5293978      764.04065     -93.298356      670.7423     
    258000   285.56304      0.0090902144   4.8819922      708.48978     -92.950814      615.53897    
    259000   305.56649      0.0090902144   4.013552       758.11888     -91.462401      666.65648    
    260000   306.25847      0.0090902144   6.7342842      759.8357      -89.989244      669.84646    
    261000   293.11944      0.0090902144   6.0516584      727.2374      -95.078745      632.15866    
    262000   292.56895      0.0090902144   3.5645784      725.87164     -92.367175      633.50446    
    263000   307.61551      0.0090902144   0.46654069     763.20257     -91.974855      671.22771    
    264000   302.84031      0.0090902144   4.0937741      751.35516     -90.637929      660.71723    
    265000   298.13466      0.0090902144   11.597364      739.68031     -97.559851      642.12046    
    266000   298.14358      0.0090902144   5.418901       739.70244     -98.021116      641.68132    
    267000   308.01298      0.0090902144   1.0890057      764.18868     -92.56564       671.62304    
    268000   304.13947      0.0090902144  -0.071535814    754.57842     -85.603767      668.97465    
    269000   303.59607      0.0090902144   5.1383429      753.23021     -94.652025      658.57819    
    270000   305.23099      0.0090902144   8.8444506      757.2865      -93.215234      664.07127    
    271000   288.65948      0.0090902144   1.0171854      716.17212     -94.919555      621.25256    
    272000   303.13839      0.0090902144  -1.0111693      752.09469     -90.966351      661.12834    
    273000   310.832        0.0090902144   5.7045054      771.18276     -92.488956      678.6938     
    274000   300.65535      0.0090902144   5.3599207      745.93422     -94.434337      651.49988    
    275000   294.78992      0.0090902144   9.4315342      731.38191     -94.375145      637.00677    
    276000   300.7863       0.0090902144   3.5673565      746.2591      -97.08316       649.17594    
    277000   303.85215      0.0090902144  -0.29225588     753.86555     -100.77804      653.08751    
    278000   297.39207      0.0090902144   5.2309979      737.83793     -98.614024      639.22391    
    279000   288.63425      0.0090902144   4.6344382      716.10954     -98.355133      617.75441    
    280000   312.03587      0.0090902144   4.9428927      774.1696      -101.55862      672.61099    
    281000   304.22972      0.0090902144   5.1097347      754.80231     -100.85791      653.9444     
    282000   303.79609      0.0090902144   3.8494856      753.72647     -94.12818       659.59829    
    283000   302.81872      0.0090902144   4.490341       751.30159     -92.544298      658.75729    
    284000   283.58114      0.0090902144   4.1539138      703.57264     -87.145986      616.42665    
    285000   293.65585      0.0090902144   3.854034       728.56826     -89.020095      639.54817    
    286000   310.3677       0.0090902144   5.2039119      770.03082     -90.798011      679.23281    
    287000   291.25517      0.0090902144   5.7054106      722.61211     -96.551913      626.0602     
    288000   285.01358      0.0090902144   4.6249237      707.12656     -93.281526      613.84503    
    289000   311.55592      0.0090902144   4.8040424      772.97882     -89.257982      683.72084    
    290000   300.89069      0.0090902144   3.7147066      746.51811     -93.9224        652.59571    
    291000   294.39254      0.0090902144   4.4747155      730.39602     -91.65197       638.74405    
    292000   305.41595      0.0090902144   5.7586153      757.74539     -84.325122      673.42026    
    293000   305.85642      0.0090902144   4.3163165      758.83821     -89.225133      669.61307    
    294000   292.12936      0.0090902144   2.4168514      724.781       -90.456164      634.32483    
    295000   290.9719       0.0090902144   7.2835261      721.90932     -93.590938      628.31838    
    296000   313.02011      0.0090902144   5.4344368      776.61153     -82.868956      693.74258    
    297000   298.96764      0.0090902144   4.3017333      741.74697     -86.193949      655.55302    
    298000   290.69707      0.0090902144   4.050284       721.22744     -87.082984      634.14445    
    299000   295.92926      0.0090902144   5.5173066      734.20865     -84.292141      649.91651    
    300000   318.32111      0.0090902144   2.0925939      789.76345     -84.621835      705.14162    
    301000   293.89218      0.0090902144   3.0770396      729.15461     -81.849391      647.30522    
    302000   294.77929      0.0090902144   8.906805       731.35554     -81.654712      649.70083    
    303000   328.53041      0.0090902144   7.1920771      815.093       -79.565513      735.52748    
    304000   313.40271      0.0090902144   1.3543566      777.56077     -78.616984      698.94379    
    305000   296.7268       0.0090902144   0.86221109     736.18738     -77.156533      659.03084    
    306000   282.22405      0.0090902144   9.1098475      700.20565     -82.69952       617.50613    
    307000   315.83878      0.0090902144   10.331354      783.60472     -81.023694      702.58103    
    308000   303.47301      0.0090902144  -3.065261       752.92489     -81.754184      671.17071    
    309000   287.8103       0.0090902144  -3.8968101      714.06528     -82.602227      631.46305    
    310000   298.29378      0.0090902144   8.0514482      740.0751      -86.034753      654.04035    
    311000   316.16233      0.0090902144   4.8328096      784.40745     -77.069538      707.33791    
    312000   298.98345      0.0090902144  -1.1588386      741.78619     -79.300572      662.48562    
    313000   288.29873      0.0090902144   3.0984742      715.2771      -77.23969       638.03741    
    314000   291.12446      0.0090902144   6.0075205      722.2878      -75.858173      646.42963    
    315000   311.73481      0.0090902144   6.305315       773.42266     -76.242943      697.17972    
    316000   294.64271      0.0090902144   3.5155681      731.01669     -74.827212      656.18948    
    317000   287.59126      0.0090902144   3.3464145      713.52185     -81.526591      631.99526    
    318000   295.08401      0.0090902144   6.4269951      732.11157     -80.622509      651.48907    
    319000   311.39736      0.0090902144   4.900815       772.58544     -83.147476      689.43796    
    320000   286.04404      0.0090902144   3.0971267      709.68315     -83.802482      625.88067    
    321000   298.81314      0.0090902144   5.4088595      741.36363     -85.591684      655.77195    
    322000   314.32304      0.0090902144   4.7403606      779.84413     -91.66999       688.17414    
    323000   284.17295      0.0090902144   5.1694812      705.04093     -89.066341      615.97459    
    324000   296.96046      0.0090902144   4.641178       736.76708     -86.889239      649.87784    
    325000   313.04088      0.0090902144   3.7956702      776.66305     -82.415899      694.24715    
    326000   307.10476      0.0090902144   7.5645343      761.93538     -80.561686      681.3737     
    327000   299.47082      0.0090902144   6.5861714      742.99537     -76.23264       666.76273    
    328000   297.53622      0.0090902144   3.5839378      738.19555     -82.595163      655.60039    
    329000   303.24474      0.0090902144   3.2723407      752.35857     -80.145107      672.21346    
    330000   299.34288      0.0090902144   4.9045194      742.67795     -73.098876      669.57907    
    331000   293.70828      0.0090902144   5.7032798      728.69833     -74.399997      654.29834    
    332000   284.18043      0.0090902144   3.1390924      705.05949     -77.285573      627.77391    
    333000   288.98435      0.0090902144   8.0384456      716.97814     -75.970257      641.00788    
    334000   294.20203      0.0090902144   3.6922995      729.92333     -75.806316      654.11702    
    335000   304.45057      0.0090902144   3.4082164      755.35025     -78.758031      676.59222    
    336000   307.50981      0.0090902144   5.4810708      762.94033     -79.464495      683.47583    
    337000   301.09537      0.0090902144   4.5110394      747.02591     -79.55835       667.46756    
    338000   290.80789      0.0090902144   4.8571353      721.50239     -78.186346      643.31604    
    339000   311.68144      0.0090902144   4.8865337      773.29024     -75.937269      697.35298    
    340000   299.60878      0.0090902144   4.3226516      743.33763     -78.989567      664.34807    
    341000   287.67607      0.0090902144   3.7602591      713.73226     -75.000679      638.73158    
    342000   290.2777       0.0090902144   3.8898081      720.18697     -76.627554      643.55942    
    343000   308.24231      0.0090902144   6.5788224      764.75766     -77.579211      687.17845    
    344000   298.44048      0.0090902144   4.4760035      740.43907     -76.520406      663.91866    
    345000   295.80786      0.0090902144   1.1864698      733.90746     -76.286815      657.62064    
    346000   300.02453      0.0090902144   3.4915888      744.36914     -76.023403      668.34574    
    347000   301.09782      0.0090902144   5.4970697      747.03198     -73.246441      673.78554    
    348000   306.51403      0.0090902144   20.571281      760.46975     -76.773931      683.69582    
    349000   308.99883      0.0090902144   6.7849887      766.63462     -77.45416       689.18046    
    350000   301.06628      0.0090902144   2.0078545      746.95373     -72.614455      674.33927    
    351000   300.28492      0.0090902144   8.9380525      745.01516     -76.77574       668.23942    
    352000   300.04186      0.0090902144   8.4264216      744.41213     -75.41954       668.99259    
    353000   300.05861      0.0090902144   1.0053922      744.45368     -71.795961      672.65772    
    354000   305.89028      0.0090902144   9.2157823      758.92223     -74.777959      684.14427    
    355000   300.5802       0.0090902144   11.783592      745.74775     -71.572824      674.17493    
    356000   300.54634      0.0090902144  -1.3177446      745.66376     -71.888093      673.77567    
    357000   287.85268      0.0090902144   5.1645758      714.17042     -70.93972       643.2307     
    358000   303.18183      0.0090902144   6.7646795      752.20248     -71.594848      680.60763    
    359000   325.64823      0.0090902144   5.458761       807.94224     -69.110357      738.83188    
    360000   297.03298      0.0090902144   6.3528799      736.94702     -73.679646      663.26737    
    361000   293.77871      0.0090902144   5.2577156      728.87308     -72.979645      655.89344    
    362000   301.4437       0.0090902144   2.8539163      747.89014     -69.897847      677.99229    
    363000   305.57054      0.0090902144   3.0021286      758.12894     -70.967484      687.16145    
    364000   302.04358      0.0090902144   1.9229712      749.37845     -70.043567      679.33489    
    365000   299.44583      0.0090902144   7.4727239      742.93337     -73.237138      669.69623    
    366000   291.19919      0.0090902144   6.6420531      722.47321     -70.107906      652.36531    
    367000   285.56625      0.0090902144   6.69286        708.49773     -71.560707      636.93703    
    368000   303.75789      0.0090902144   1.013205       753.63169     -72.64054       680.99115    
    369000   312.72274      0.0090902144   5.551732       775.87375     -70.537774      705.33597    
    370000   292.12525      0.0090902144   5.6788716      724.7708      -68.169596      656.6012     
    371000   297.70383      0.0090902144   4.1397497      738.6114      -65.928971      672.68243    
    372000   299.89279      0.0090902144   4.9395869      744.04227     -68.291532      675.75074    
    373000   290.90921      0.0090902144   10.580952      721.75378     -68.910066      652.84371    
    374000   295.37442      0.0090902144   3.8025791      732.83209     -67.994242      664.83785    
    375000   304.84101      0.0090902144   4.601712       756.31896     -67.477477      688.84148    
    376000   292.76818      0.0090902144   7.4135881      726.36593     -68.403291      657.96264    
    377000   300.0342       0.0090902144   5.9228083      744.39313     -70.454354      673.93878    
    378000   298.27622      0.0090902144  -2.6198876      740.03151     -71.747146      668.28437    
    379000   309.34549      0.0090902144   3.903437       767.49469     -65.589819      701.90487    
    380000   310.10748      0.0090902144   8.9369598      769.3852      -70.476154      698.90904    
    381000   302.40541      0.0090902144   6.5695388      750.27617     -70.353304      679.92286    
    382000   285.36924      0.0090902144   4.3992374      708.00895     -68.351568      639.65739    
    383000   301.32363      0.0090902144  -1.5324359      747.59224     -68.36407       679.22817    
    384000   302.4182       0.0090902144   10.215542      750.30788     -65.840095      684.46779    
    385000   296.73118      0.0090902144   6.7938027      736.19823     -67.592642      668.60559    
    386000   291.01696      0.0090902144   2.2909212      722.02109     -69.07152       652.94957    
    387000   308.33796      0.0090902144   4.5636949      764.99498     -66.308443      698.68654    
    388000   306.02572      0.0090902144   9.1861549      759.25824     -67.117103      692.14114    
    389000   292.3906       0.0090902144   9.4754488      725.42913     -65.434038      659.99509    
    390000   296.87644      0.0090902144   2.9154557      736.55862     -67.451234      669.10738    
    391000   316.41849      0.0090902144   9.9832419      785.04299     -72.369488      712.6735     
    392000   306.92454      0.0090902144   16.994793      761.48824     -63.18097       698.30727    
    393000   282.35079      0.0090902144   5.357129       700.52009     -69.300151      631.21994    
    394000   301.21938      0.0090902144  -5.2045473      747.33357     -66.130664      681.20291    
    395000   303.86384      0.0090902144   5.9495699      753.89457     -65.6964        688.19817    
    396000   289.97573      0.0090902144   3.1904514      719.43779     -66.39547       653.04232    
    397000   267.83176      0.0090902144   0.30115679     664.49798     -63.336501      601.16148    
    398000   298.49373      0.0090902144  -2.6685718      740.57117     -64.964801      675.60637    
    399000   313.22044      0.0090902144   2.3452954      777.10854     -65.708181      711.40036    
    400000   306.46136      0.0090902144   9.3249503      760.33909     -64.961428      695.37766    
    401000   288.82882      0.0090902144   5.4952953      716.59226     -68.450661      648.14159    
    402000   288.8177       0.0090902144   2.8804327      716.56468     -71.614641      644.95004    
    403000   314.18239      0.0090902144   3.5336232      779.49516     -71.933302      707.56186    
    404000   301.94035      0.0090902144   5.9689966      749.12234     -67.702203      681.42013    
    405000   293.24708      0.0090902144   5.6294218      727.55408     -70.61911       656.93497    
    406000   294.17271      0.0090902144   5.2133146      729.85061     -67.578958      662.27165    
    407000   318.30312      0.0090902144   2.9470255      789.71882     -65.44001       724.27881    
    408000   312.1809       0.0090902144   7.923628       774.52941     -63.214845      711.31457    
    409000   299.81549      0.0090902144   11.143163      743.85049     -64.84342       679.00707    
    410000   286.24254      0.0090902144   3.5977325      710.17563     -66.897298      643.27833    
    411000   305.78593      0.0090902144   2.174125       758.66333     -65.226524      693.4368     
    412000   308.25901      0.0090902144   3.3505156      764.79911     -68.015334      696.78378    
    413000   297.59875      0.0090902144   5.1923475      738.3507      -62.371266      675.97944    
    414000   308.20603      0.0090902144   4.9933745      764.66765     -60.526205      704.14145    
    415000   298.20464      0.0090902144   4.2541357      739.85393     -64.916013      674.93791    
    416000   299.87849      0.0090902144   5.2637168      744.0068      -61.260397      682.7464     
    417000   310.54855      0.0090902144   4.8124545      770.47951     -71.807917      698.67159    
    418000   304.63198      0.0090902144   5.0502137      755.80035     -65.747615      690.05273    
    419000   298.62572      0.0090902144   4.6308394      740.89863     -69.535028      671.3636     
    420000   297.30786      0.0090902144   2.7315221      737.629       -67.953534      669.67547    
    421000   305.63993      0.0090902144   4.5269112      758.30109     -69.168077      689.13302    
    422000   308.92964      0.0090902144   6.6805296      766.46294     -65.792414      700.67053    
    423000   293.33175      0.0090902144   3.8084324      727.76415     -64.735062      663.02908    
    424000   307.89238      0.0090902144   3.1981667      763.88949     -64.022412      699.86707    
    425000   304.04561      0.0090902144   5.5788321      754.34554     -67.921715      686.42383    
    426000   281.06876      0.0090902144   2.6009822      697.33934     -65.132536      632.2068     
    427000   299.70542      0.0090902144   4.189143       743.57742     -67.267317      676.3101     
    428000   307.01944      0.0090902144   4.6471259      761.7237      -72.430903      689.29279    
    429000   298.92949      0.0090902144   2.7950331      741.6523      -69.624374      672.02793    
    430000   299.3456       0.0090902144   4.0304473      742.68468     -72.042221      670.64246    
    431000   300.63938      0.0090902144   9.8059501      745.8946      -69.74056       676.15404    
    432000   310.06959      0.0090902144   4.7794043      769.29121     -69.939261      699.35195    
    433000   301.53524      0.0090902144   3.2748108      748.11723     -63.78173       684.3355     
    434000   291.28496      0.0090902144   4.7929084      722.68601     -67.204107      655.4819     
    435000   307.77677      0.0090902144   3.8323666      763.60265     -68.659341      694.94331    
    436000   304.46248      0.0090902144   6.2693119      755.37981     -68.200291      687.17952    
    437000   303.56625      0.0090902144   4.8095733      753.15623     -65.022456      688.13378    
    438000   300.80696      0.0090902144   5.0868227      746.31036     -61.201552      685.10881    
    439000   307.11946      0.0090902144   4.4091022      761.97184     -62.263378      699.70846    
    440000   305.06832      0.0090902144   4.8633128      756.88291     -60.679252      696.20366    
    441000   291.95684      0.0090902144   4.4745801      724.35297     -61.241932      663.11104    
    442000   288.99358      0.0090902144   4.3117266      717.00104     -64.183426      652.81761    
    443000   305.47823      0.0090902144   5.232662       757.89991     -67.725199      690.17471    
    444000   304.35237      0.0090902144   5.1030499      755.10663     -70.863863      684.24276    
    445000   299.20739      0.0090902144   4.8002749      742.34179     -67.399745      674.94204    
    446000   307.89679      0.0090902144   3.9828037      763.90042     -69.437533      694.46289    
    447000   303.6746       0.0090902144   5.2268955      753.42505     -67.043075      686.38198    
    448000   287.96944      0.0090902144   4.8289161      714.46011     -64.178507      650.2816     
    449000   298.46617      0.0090902144   4.2572676      740.50279     -66.014556      674.48824    
    450000   306.62071      0.0090902144   4.6696988      760.73445     -67.243667      693.49078    
    451000   301.09515      0.0090902144   7.1231335      747.02537     -67.54816       679.47721    
    452000   288.69822      0.0090902144   4.6942854      716.26825     -68.060398      648.20785    
    453000   312.13894      0.0090902144   3.4639281      774.42532     -64.857343      709.56797    
    454000   316.09299      0.0090902144   4.8010167      784.23543     -69.167421      715.06801    
    455000   295.41006      0.0090902144   5.6498205      732.92051     -67.132885      665.78762    
    456000   285.39996      0.0090902144   4.4303559      708.08517     -65.929175      642.15599    
    457000   298.87394      0.0090902144   4.7676625      741.51448     -67.837737      673.67674    
    458000   302.43331      0.0090902144   3.8960176      750.34539     -65.342503      685.00289    
    459000   295.93255      0.0090902144   2.6570676      734.21682     -64.137399      670.07943    
    460000   295.04049      0.0090902144   5.2909596      732.00358     -59.980256      672.02332    
    461000   298.61888      0.0090902144   6.3727233      740.88167     -63.986281      676.89538    
    462000   305.77778      0.0090902144   4.6966634      758.64311     -62.646974      695.99613    
    463000   304.14416      0.0090902144   3.8683912      754.59004     -58.742279      695.84776    
    464000   292.36255      0.0090902144   4.8723923      725.35955     -58.66457       666.69498    
    465000   294.58651      0.0090902144   4.4934497      730.87724     -60.663345      670.2139     
    466000   305.27815      0.0090902144   5.0794831      757.40351     -63.195987      694.20752    
    467000   310.06991      0.0090902144   5.1506504      769.29199     -59.015904      710.27609    
    468000   284.06748      0.0090902144   4.4024822      704.77926     -60.220767      644.55849    
    469000   292.11891      0.0090902144   4.3595441      724.75506     -57.639886      667.11518    
    470000   303.90886      0.0090902144   1.9494433      754.00627     -59.845824      694.16045    
    471000   310.49238      0.0090902144   8.1850561      770.34016     -65.525699      704.81446    
    472000   288.54701      0.0090902144   5.9498955      715.8931      -64.844521      651.04858    
    473000   285.91633      0.0090902144   2.1439526      709.3663      -61.319047      648.04725    
    474000   310.05971      0.0090902144   3.766951       769.26669     -57.662564      711.60413    
    475000   309.71119      0.0090902144   6.1675886      768.402       -59.320946      709.08105    
    476000   295.75394      0.0090902144   5.4917097      733.77367     -56.986398      676.78728    
    477000   296.9229       0.0090902144   4.6050465      736.6739      -58.40516       678.26874    
    478000   296.87138      0.0090902144   4.9459813      736.54609     -51.413421      685.13266    
    479000   303.48663      0.0090902144   4.8053319      752.95869     -55.506219      697.45247    
    480000   300.46302      0.0090902144   5.1193047      745.45704     -57.458127      687.99891    
    481000   284.39157      0.0090902144   4.8164628      705.58333     -55.617984      649.96534    
    482000   303.42673      0.0090902144   4.6240226      752.81009     -56.498598      696.31149    
    483000   308.98452      0.0090902144   3.0148993      766.59912     -59.077498      707.52162    
    484000   306.67306      0.0090902144   4.2070957      760.86431     -56.709025      704.15528    
    485000   301.55022      0.0090902144   5.4373197      748.15441     -57.209806      690.9446     
    486000   293.09408      0.0090902144   4.6626334      727.17449     -54.786072      672.38841    
    487000   303.25515      0.0090902144   2.468154       752.38439     -53.539902      698.84448    
    488000   307.3572       0.0090902144   4.6808224      762.56167     -53.411529      709.15015    
    489000   317.04743      0.0090902144   5.5955086      786.60341     -50.210454      736.39296    
    490000   295.76124      0.0090902144   5.3747204      733.79179     -49.345299      684.44649    
    491000   296.56319      0.0090902144   4.6459019      735.78144     -57.785784      677.99566    
    492000   318.0672       0.0090902144   4.5377855      789.13349     -59.209652      729.92384    
    493000   299.20627      0.0090902144   4.7055045      742.33901     -61.660244      680.67877    
    494000   293.49424      0.0090902144   4.2671221      728.1673      -54.865769      673.30153    
    495000   310.53298      0.0090902144   4.5666923      770.44088     -54.635662      715.80522    
    496000   295.95448      0.0090902144   3.0790269      734.27123     -61.029324      673.2419     
    497000   302.34677      0.0090902144   3.3136735      750.13067     -60.023147      690.10752    
    498000   291.53708      0.0090902144   4.9703563      723.31152     -55.299611      668.01191    
    499000   307.88517      0.0090902144   4.4625823      763.87159     -55.82018       708.05141    
    500000   302.5409       0.0090902144   4.1616127      750.61231     -54.49297       696.11934    
    501000   296.31508      0.0090902144   6.7229503      735.16588     -52.933722      682.23215    
    502000   302.25837      0.0090902144   7.9470693      749.91135     -49.963267      699.94808    
    503000   307.37711      0.0090902144   3.137712       762.61108     -50.784228      711.82686    
    504000   288.16299      0.0090902144   4.9146088      714.94033     -52.743541      662.19679    
    505000   294.82918      0.0090902144   6.9748287      731.47932     -49.583489      681.89583    
    506000   308.38696      0.0090902144   2.4045329      765.11655     -52.324595      712.79196    
    507000   291.7948       0.0090902144   4.0186729      723.95095     -49.911104      674.03985    
    508000   301.17708      0.0090902144   7.0384202      747.22865     -49.766517      697.46213    
    509000   293.87031      0.0090902144   10.489351      729.10034     -48.717124      680.38322    
    510000   300.97962      0.0090902144   4.4745165      746.73874     -49.997051      696.74168    
    511000   313.0901       0.0090902144   2.3674601      776.78518     -51.968583      724.8166     
    512000   285.78133      0.0090902144   3.2487603      709.03136     -50.075076      658.95629    
    513000   289.36867      0.0090902144   5.6147829      717.93165     -49.757919      668.17374    
    514000   302.33051      0.0090902144   6.6618558      750.09033     -53.037976      697.05235    
    515000   326.4291       0.0090902144   3.2475055      809.87958     -50.224204      759.65538    
    516000   310.1024       0.0090902144  -0.35823268     769.37259     -52.371663      717.00093    
    517000   292.3099       0.0090902144   4.5659387      725.22893     -51.760953      673.46798    
    518000   300.41006      0.0090902144   9.3563135      745.32563     -48.489903      696.83573    
    519000   307.06766      0.0090902144   4.248967       761.84332     -49.278803      712.56452    
    520000   284.39239      0.0090902144   5.0216781      705.58536     -44.735223      660.85014    
    521000   293.05777      0.0090902144   6.9250378      727.08441     -46.516528      680.56788    
    522000   310.85556      0.0090902144   6.0190727      771.24121     -45.287936      725.95327    
    523000   312.46292      0.0090902144   3.820068       775.22912     -42.15834       733.07078    
    524000   289.70387      0.0090902144   5.2248941      718.76329     -47.693906      671.06938    
    525000   292.59753      0.0090902144   5.5332741      725.94255     -47.440288      678.50226    
    526000   292.95719      0.0090902144   6.9138957      726.83485     -44.995986      681.83887    
    527000   317.2272       0.0090902144   5.8496166      787.04943     -38.359955      748.68948    
    528000   309.82774      0.0090902144   0.66695472     768.69116     -42.219049      726.47211    
    529000   295.37419      0.0090902144   2.3670265      732.8315      -40.33955       692.49195    
    530000   299.94573      0.0090902144   4.7876407      744.17363     -41.793521      702.38011    
    531000   305.45794      0.0090902144   5.3257501      757.84958     -43.143574      714.706      
    532000   298.6798       0.0090902144   4.7545682      741.03282     -44.47011       696.56271    
    533000   291.33296      0.0090902144   3.0800117      722.8051      -46.757521      676.04758    
    534000   307.05262      0.0090902144   5.6174939      761.80602     -46.328263      715.47776    
    535000   290.54635      0.0090902144   5.6856462      720.85351     -43.265837      677.58767    
    536000   301.36782      0.0090902144   4.9064851      747.70186     -44.355397      703.34647    
    537000   304.49438      0.0090902144   3.7985503      755.45896     -44.988271      710.47069    
    538000   303.78637      0.0090902144   3.3991284      753.70236     -46.207437      707.49492    
    539000   303.46384      0.0090902144   6.1177492      752.90214     -45.167599      707.73454    
    540000   300.05197      0.0090902144   5.286542       744.43721     -38.396783      706.04042    
    541000   310.4059       0.0090902144   3.2727897      770.12559     -40.482599      729.64299    
    542000   295.25137      0.0090902144   2.4524236      732.52679     -39.017023      693.50977    
    543000   300.24849      0.0090902144   5.3643184      744.92478     -40.005735      704.91904    
    544000   308.88431      0.0090902144   5.4010469      766.35048     -43.280889      723.06959    
    545000   301.78208      0.0090902144   5.0202392      748.72967     -43.930738      704.79893    
    546000   305.25627      0.0090902144   3.817462       757.34923     -43.797888      713.55134    
    547000   296.85731      0.0090902144  -0.43122318     736.51117     -41.724972      694.78619    
    548000   291.55468      0.0090902144   4.9707646      723.35519     -40.682255      682.67294    
    549000   296.70272      0.0090902144   7.7984308      736.12762     -37.488045      698.63958    
    550000   309.31952      0.0090902144   6.8403587      767.43026     -36.867411      730.56285    
    551000   294.77851      0.0090902144   1.5193429      731.3536      -36.17642       695.17718    
    552000   290.10136      0.0090902144   4.8948129      719.74946     -32.023979      687.72548    
    553000   308.72185      0.0090902144   8.2960264      765.94742     -33.522344      732.42508    
    554000   313.14266      0.0090902144   4.5402519      776.91558     -36.793186      740.1224     
    555000   293.66393      0.0090902144   4.6824778      728.58832     -33.005329      695.58299    
    556000   292.78763      0.0090902144   4.7335593      726.41419     -36.302351      690.11184    
    557000   300.5604       0.0090902144   6.2208435      745.69863     -35.013123      710.68551    
    558000   317.56907      0.0090902144   8.7328042      787.89761     -34.740029      753.15759    
    559000   300.95165      0.0090902144   3.8667735      746.66934     -37.286099      709.38324    
    560000   274.30768      0.0090902144   4.7136439      680.56492     -41.790858      638.77406    
    561000   300.75908      0.0090902144   6.303708       746.19157     -39.27821       706.91336    
    562000   314.39435      0.0090902144   5.0416207      780.02105     -41.014289      739.00676    
    563000   302.97376      0.0090902144   2.3457748      751.68624     -37.142065      714.54418    
    564000   292.32615      0.0090902144   4.6160093      725.26923     -36.828665      688.44057    
    565000   296.62282      0.0090902144   4.7607596      735.9294      -41.612844      694.31656    
    566000   310.10931      0.0090902144   4.9670729      769.38975     -38.822886      730.56686    
    567000   302.01244      0.0090902144   4.5770144      749.30118     -36.585167      712.71601    
    568000   290.25479      0.0090902144   4.402862       720.13014     -36.359722      683.77041    
    569000   297.21682      0.0090902144   4.6179969      737.40313     -36.887717      700.51541    
    570000   306.77584      0.0090902144   5.3765221      761.11932     -37.294577      723.82475    
    571000   297.3519       0.0090902144   3.3605412      737.73827     -42.240874      695.4974     
    572000   290.52981      0.0090902144   5.1891171      720.81247     -41.024623      679.78784    
    573000   287.59227      0.0090902144   5.3074528      713.52434     -39.947296      673.57705    
    574000   306.78042      0.0090902144   9.079242       761.13067     -40.120322      721.01035    
    575000   297.49805      0.0090902144   3.3182928      738.10087     -41.882448      696.21842    
    576000   282.42747      0.0090902144   5.326779       700.71035     -44.904022      655.80633    
    577000   301.44901      0.0090902144   5.1173832      747.9033      -42.019005      705.8843     
    578000   311.63152      0.0090902144   3.6026299      773.16639     -38.328501      734.83789    
    579000   304.22085      0.0090902144   4.3714957      754.78032     -37.515893      717.26443    
    580000   291.44522      0.0090902144   7.4413593      723.08362     -38.840817      684.2428     
    581000   302.44834      0.0090902144   6.6225347      750.38266     -39.380478      711.00219    
    582000   314.33525      0.0090902144   1.4767172      779.87441     -38.696217      741.17819    
    583000   282.11799      0.0090902144   0.96182152     699.94252     -36.480879      663.46164    
    584000   293.01824      0.0090902144   5.7500104      726.98634     -35.174602      691.81174    
    585000   303.87401      0.0090902144   4.9122072      753.91978     -36.18054       717.73924    
    586000   307.5246       0.0090902144   4.5314891      762.977       -38.121365      724.85563    
    587000   294.68531      0.0090902144   4.5197007      731.12239     -34.614035      696.50835    
    588000   284.84067      0.0090902144   2.0888221      706.69755     -36.361388      670.33616    
    589000   298.79636      0.0090902144   4.4928866      741.32201     -36.084545      705.23746    
    590000   304.19309      0.0090902144   5.0602965      754.71143     -34.283935      720.4275     
    591000   306.43489      0.0090902144   6.8866151      760.2734      -35.863261      724.41014    
    592000   289.17194      0.0090902144   5.2159052      717.44357     -35.216532      682.22703    
    593000   299.06153      0.0090902144   3.7323454      741.9799      -37.214777      704.76512    
    594000   306.33299      0.0090902144   4.0389121      760.0206      -36.857907      723.16269    
    595000   308.59473      0.0090902144   7.347975       765.63202     -33.844734      731.78729    
    596000   291.59214      0.0090902144   5.0344339      723.44813     -36.017666      687.43047    
    597000   285.52651      0.0090902144   4.3095978      708.39914     -37.085733      671.31341    
    598000   309.75561      0.0090902144   4.1480178      768.5122      -39.000702      729.5115     
    599000   310.32572      0.0090902144   6.8399501      769.92666     -35.936413      733.99025    
    600000   294.83631      0.0090902144   5.058746       731.49702     -37.897447      693.59957    
    601000   304.52001      0.0090902144   4.4809652      755.52253     -39.323732      716.1988     
    602000   303.86814      0.0090902144   5.3671847      753.90523     -42.478397      711.42684    
    603000   291.53881      0.0090902144   4.9978678      723.31583     -41.570374      681.74546    
    604000   287.79778      0.0090902144   4.1730575      714.03422     -38.206443      675.82778    
    605000   300.00161      0.0090902144   5.8310226      744.31227     -38.836243      705.47602    
    606000   306.95943      0.0090902144   5.7927455      761.5748      -36.431788      725.14301    
    607000   296.81872      0.0090902144   0.16652688     736.41543     -36.476116      699.93931    
    608000   293.87944      0.0090902144   5.4337523      729.123       -38.408482      690.71452    
    609000   305.74492      0.0090902144   5.2903434      758.56157     -37.078506      721.48306    
    610000   292.54966      0.0090902144  -0.46323956     725.82378     -39.298158      686.52562    
    611000   296.31109      0.0090902144   6.8251193      735.15599     -37.670471      697.48552    
    612000   296.45698      0.0090902144   10.208385      735.51794     -38.139931      697.378      
    613000   298.90024      0.0090902144   4.6117401      741.57974     -35.598797      705.98094    
    614000   306.26152      0.0090902144   2.342612       759.84327     -34.063761      725.77951    
    615000   284.80463      0.0090902144   4.544418       706.60815     -36.805141      669.80301    
    616000   288.40482      0.0090902144   7.6520115      715.54031     -34.613734      680.92658    
    617000   304.91945      0.0090902144   4.8855922      756.51355     -39.466031      717.04752    
    618000   309.15959      0.0090902144   2.7061635      767.03347     -33.628645      733.40483    
    619000   285.08533      0.0090902144   4.7043072      707.30456     -35.680205      671.62436    
    620000   309.39598      0.0090902144   6.164186       767.61995     -36.713424      730.90653    
    621000   305.92826      0.0090902144   3.3144428      759.01644     -33.659427      725.35701    
    622000   305.83504      0.0090902144   2.2859524      758.78516     -37.803711      720.98144    
    623000   293.91173      0.0090902144   5.4361664      729.20311     -34.619944      694.58317    
    624000   297.81267      0.0090902144   8.9823225      738.88144     -34.820325      704.06111    
    625000   301.04225      0.0090902144   5.3027965      746.89412     -35.047156      711.84697    
    626000   305.79567      0.0090902144   3.6357785      758.68749     -32.128976      726.55852    
    627000   299.07395      0.0090902144   2.0275905      742.01071     -30.399721      711.61099    
    628000   287.62502      0.0090902144   5.5142718      713.60559     -32.230461      681.37513    
    629000   311.60622      0.0090902144   8.0716763      773.10362     -34.727755      738.37587    
    630000   308.47604      0.0090902144   2.196829       765.33755     -34.181644      731.1559     
    631000   289.7576       0.0090902144   4.5774557      718.89658     -36.012105      682.88448    
    632000   306.45609      0.0090902144   6.2282002      760.326       -38.616468      721.70953    
    633000   313.22523      0.0090902144   3.6272768      777.12043     -38.932094      738.18833    
    634000   295.01488      0.0090902144   3.9289549      731.94004     -38.99523       692.94481    
    635000   299.0136       0.0090902144   5.8106311      741.86098     -34.875763      706.98522    
    636000   310.79286      0.0090902144   4.9231409      771.08566     -33.135164      737.9505     
    637000   301.99135      0.0090902144   5.3619724      749.24888     -32.594268      716.65461    
    638000   283.25714      0.0090902144   5.0444374      702.76876     -34.486139      668.28262    
    639000   296.32278      0.0090902144   4.620351       735.18498     -29.216822      705.96816    
    640000   308.07046      0.0090902144   3.7591758      764.33131     -32.103294      732.22802    
    641000   308.64354      0.0090902144   5.511801       765.75312     -34.277325      731.47579    
    642000   293.73153      0.0090902144   5.0219057      728.75603     -33.772598      694.98343    
    643000   287.6696       0.0090902144   1.4369237      713.71622     -35.41247       678.30375    
    644000   304.42475      0.0090902144   4.7338125      755.2862      -34.720173      720.56602    
    645000   313.21235      0.0090902144   11.658246      777.08848     -31.543644      745.54484    
    646000   299.27707      0.0090902144   10.435528      742.51466     -31.775977      710.73868    
    647000   291.62232      0.0090902144  -2.8002059      723.523       -32.45612       691.06688    
    648000   305.43983      0.0090902144   6.0538522      757.80463     -29.654671      728.14996    
    649000   307.12886      0.0090902144   6.5015508      761.99517     -28.235972      733.75919    
    650000   292.45483      0.0090902144   1.3808836      725.5885      -30.092629      695.49587    
    651000   298.95771      0.0090902144   3.6351914      741.72232     -29.646078      712.07624    
    652000   311.73767      0.0090902144   4.9986242      773.42976     -30.603616      742.82614    
    653000   317.82766      0.0090902144   6.037502       788.53917     -28.994009      759.54516    
    654000   287.17333      0.0090902144   5.2246084      712.48495     -31.122822      681.36213    
    655000   286.86902      0.0090902144   2.1800651      711.72995     -29.161335      682.56861    
    656000   302.71211      0.0090902144   5.3055917      751.0371      -28.048545      722.98855    
    657000   307.99585      0.0090902144   5.29123        764.14621     -30.152518      733.99369    
    658000   297.81108      0.0090902144   4.1743495      738.87751     -30.66389       708.21362    
    659000   294.80296      0.0090902144   2.8912794      731.41427     -32.958859      698.45541    
    660000   309.83576      0.0090902144   5.4292526      768.71106     -27.83561       740.87545    
    661000   299.24508      0.0090902144   5.2739557      742.43528     -27.027934      715.40735    
    662000   301.15145      0.0090902144   5.2557356      747.16504     -30.218944      716.9461     
    663000   297.95646      0.0090902144   4.588902       739.2382      -29.480418      709.75778    
    664000   307.46161      0.0090902144   5.440847       762.82072     -27.922429      734.89829    
    665000   297.39198      0.0090902144   4.7704426      737.83769     -28.684449      709.15324    
    666000   295.05184      0.0090902144   5.5465878      732.03176     -29.089413      702.94235    
    667000   303.68397      0.0090902144   5.827683       753.4483      -33.365253      720.08305    
    668000   301.38232      0.0090902144   4.5557023      747.73784     -31.28599       716.45185    
    669000   285.08349      0.0090902144   4.9115663      707.3         -29.157138      678.14286    
    670000   294.06221      0.0090902144   5.0221379      729.57644     -31.864443      697.712      
    671000   313.80956      0.0090902144   5.804476       778.57017     -34.112266      744.45791    
    672000   299.72417      0.0090902144   4.348114       743.62393     -29.190042      714.43388    
    673000   304.22366      0.0090902144   7.3266887      754.7873      -36.65708       718.13021    
    674000   300.03889      0.0090902144   7.3328983      744.40476     -37.289954      707.11481    
    675000   310.40079      0.0090902144   4.7606757      770.11292     -35.465343      734.64757    
    676000   298.65976      0.0090902144   4.0863215      740.9831      -31.679575      709.30353    
    677000   301.22243      0.0090902144   4.8230248      747.34116     -34.210018      713.13114    
    678000   299.14903      0.0090902144   4.615732       742.19698     -33.051732      709.14525    
    679000   311.98784      0.0090902144   5.517462       774.05043     -30.746267      743.30416    
    680000   297.15603      0.0090902144   5.2794464      737.25231     -30.628374      706.62393    
    681000   290.79926      0.0090902144   3.1900465      721.48098     -27.795158      693.68582    
    682000   298.22166      0.0090902144   3.8851794      739.89616     -27.190398      712.70576    
    683000   306.82925      0.0090902144   7.7538593      761.25184     -24.55388       736.69796    
    684000   296.89289      0.0090902144   5.1636334      736.59944     -25.519195      711.08024    
    685000   301.94208      0.0090902144   3.4739147      749.12663     -29.024825      720.1018     
    686000   300.68657      0.0090902144   5.1730139      746.01167     -25.630917      720.38075    
    687000   304.96514      0.0090902144   6.2573067      756.62693     -29.507752      727.11917    
    688000   300.35505      0.0090902144   4.3301173      745.18916     -31.428205      713.76095    
    689000   305.30797      0.0090902144   5.1554966      757.47749     -22.745914      734.73157    
    690000   313.64277      0.0090902144   5.7076701      778.15637     -27.627384      750.52898    
    691000   286.44311      0.0090902144   4.5606212      710.67325     -22.803559      687.8697     
    692000   291.81277      0.0090902144   5.0445415      723.99554     -28.347689      695.64785    
    693000   309.67668      0.0090902144   5.9896307      768.31638     -26.243292      742.07309    
    694000   315.89879      0.0090902144   4.988789       783.75361     -26.239717      757.51389    
    695000   296.98811      0.0090902144   4.2245418      736.83568     -29.334737      707.50094    
    696000   287.09189      0.0090902144   3.7740556      712.2829      -28.099559      684.18334    
    697000   301.18558      0.0090902144   5.1358595      747.24973     -23.380145      723.86958    
    698000   321.5323       0.0090902144   5.3077535      797.7305      -20.367104      777.36339    
    699000   311.23119      0.0090902144   5.2291972      772.17316     -19.028114      753.14504    
    700000   282.74871      0.0090902144   4.9710635      701.50733     -21.613592      679.89374    
    701000   290.97328      0.0090902144   4.6783932      721.91273     -17.434626      704.4781     
    702000   313.47685      0.0090902144   3.4294635      777.7447      -19.768348      757.97635    
    703000   300.5042       0.0090902144   5.8613787      745.55921     -18.945238      726.61397    
    704000   301.44177      0.0090902144   6.2484692      747.88535     -21.047788      726.83756    
    705000   298.1908       0.0090902144   5.0396119      739.81959     -23.483492      716.3361     
    706000   294.45967      0.0090902144   4.7651518      730.56255     -22.051947      708.5106     
    707000   306.47432      0.0090902144   5.1516826      760.37123     -22.553081      737.81815    
    708000   310.291        0.0090902144   5.3996967      769.84053     -19.420875      750.41966    
    709000   292.38165      0.0090902144   4.2793056      725.40694     -17.689737      707.7172     
    710000   291.64142      0.0090902144   4.5991755      723.57041     -20.093464      703.47694    
    711000   306.44828      0.0090902144   5.0078384      760.30663     -24.859626      735.447      
    712000   302.50229      0.0090902144   5.2589293      750.51652     -21.4499        729.06662    
    713000   300.49934      0.0090902144   6.0169254      745.54715     -26.44174       719.10541    
    714000   285.07482      0.0090902144   3.8692579      707.27848     -25.559536      681.71894    
    715000   303.9108       0.0090902144   2.5340077      754.01108     -26.063514      727.94756    
    716000   309.60915      0.0090902144   5.7205026      768.14884     -21.908914      746.23993    
    717000   295.69057      0.0090902144   5.9517746      733.61647     -20.977096      712.63937    
    718000   285.69084      0.0090902144   1.5559374      708.80685     -20.819562      687.98729    
    719000   299.98424      0.0090902144   3.789667       744.26918     -20.460595      723.80858    
    720000   304.61244      0.0090902144   13.77682       755.75186     -22.361653      733.39021    
    721000   302.27599      0.0090902144   3.1964853      749.95506     -21.950783      728.00427    
    722000   309.6134       0.0090902144   5.3048793      768.15938     -22.882162      745.27722    
    723000   303.38964      0.0090902144   5.7820436      752.71807     -23.823622      728.89444    
    724000   296.85467      0.0090902144   4.6274461      736.50463     -23.783153      712.72147    
[...]
   3823000   301.34162      0.0090902144   4.8585157      747.63687     -18.557565      729.0793     
   3824000   300.4504       0.0090902144   2.3631054      745.42572     -16.293006      729.13271    
   3825000   298.93118      0.0090902144  -1.3020944      741.65649     -13.700343      727.95615    
   3826000   298.19524      0.0090902144   14.131493      739.83062     -13.37378       726.45684    
   3827000   304.63103      0.0090902144   12.837228      755.79799     -17.721855      738.07614    
   3828000   307.86128      0.0090902144   5.1927081      763.81231     -12.964025      750.84829    
   3829000   292.58229      0.0090902144   1.6440143      725.90472     -13.406687      712.49803    
   3830000   297.60744      0.0090902144   5.7238946      738.37226     -19.669698      718.70257    
   3831000   307.33956      0.0090902144   5.4465108      762.51792     -17.488675      745.02924    
   3832000   299.81418      0.0090902144   3.8618183      743.84723     -20.564376      723.28286    
   3833000   297.29065      0.0090902144   3.4794755      737.58631     -22.076042      715.51027    
   3834000   295.25038      0.0090902144   5.0110601      732.52433     -21.228874      711.29546    
   3835000   296.05593      0.0090902144   8.65564        734.52293     -21.175481      713.34745    
   3836000   308.61999      0.0090902144   8.6348888      765.69471     -20.581103      745.1136     
   3837000   309.75684      0.0090902144   4.3397505      768.51526     -16.579009      751.93625    
   3838000   297.41273      0.0090902144   2.1772209      737.88919     -15.387687      722.5015     
   3839000   288.37195      0.0090902144   5.3234964      715.45875     -14.955809      700.50294    
   3840000   296.85104      0.0090902144   5.8249221      736.49562     -15.16565       721.32997    
   3841000   304.98831      0.0090902144   4.3889337      756.68441     -13.158329      743.52608    
   3842000   301.91282      0.0090902144   5.0651942      749.05402     -17.626601      731.42742    
   3843000   285.70905      0.0090902144   7.8477775      708.85204     -17.586488      691.26555    
   3844000   295.16235      0.0090902144   6.3548983      732.30593     -18.518678      713.78725    
   3845000   319.57968      0.0090902144  -1.0477264      792.886       -18.570031      774.31597    
   3846000   290.34607      0.0090902144  -7.3832575      720.35661     -17.811615      702.545      
   3847000   294.09771      0.0090902144   6.426595       729.66453     -19.424745      710.23978    
   3848000   316.00419      0.0090902144   8.9224394      784.01511     -20.292403      763.7227     
   3849000   307.91697      0.0090902144   2.5145734      763.9505      -23.147868      740.80263    
   3850000   296.72759      0.0090902144   3.7501407      736.18933     -19.834478      716.35485    
   3851000   299.63346      0.0090902144   7.8302722      743.39886     -14.687541      728.71132    
   3852000   306.17203      0.0090902144   4.7857353      759.62125     -14.999822      744.62143    
   3853000   296.35495      0.0090902144   3.3612579      735.2648      -15.470735      719.79406    
   3854000   289.32629      0.0090902144   4.9716139      717.8265      -18.077951      699.74855    
   3855000   311.00626      0.0090902144   5.1869944      771.6151      -16.761843      754.85326    
   3856000   287.62422      0.0090902144   5.5874881      713.60361     -19.0434        694.56021    
   3857000   288.1811       0.0090902144   4.2970939      714.98526     -15.850344      699.13491    
   3858000   314.22426      0.0090902144   4.0942115      779.59904     -14.272693      765.32635    
   3859000   302.98328      0.0090902144   5.9719775      751.70987     -15.055761      736.65411    
   3860000   298.15422      0.0090902144   5.5564437      739.72885     -11.98385       727.745      
   3861000   284.76927      0.0090902144   4.4979614      706.52041     -14.693836      691.82657    
   3862000   311.46671      0.0090902144   4.0133116      772.7575      -12.747146      760.01035    
   3863000   311.80377      0.0090902144   9.1736157      773.59375     -12.609363      760.98438    
   3864000   312.30483      0.0090902144   8.2452994      774.8369      -13.413096      761.42381    
   3865000   298.33847      0.0090902144   2.2083741      740.18597     -11.842471      728.3435     
   3866000   303.32824      0.0090902144   3.8088266      752.56573     -10.565143      742.00059    
   3867000   303.55301      0.0090902144   7.4298202      753.1234      -13.672822      739.45058    
   3868000   300.24354      0.0090902144   7.8337569      744.9125      -16.447809      728.46469    
   3869000   300.65819      0.0090902144   5.3939479      745.94126     -15.617908      730.32335    
   3870000   297.50227      0.0090902144   3.4676536      738.11134     -15.902605      722.20873    
   3871000   299.69054      0.0090902144   2.9546938      743.54049     -14.297751      729.24273    
   3872000   304.67508      0.0090902144   7.8998753      755.90726     -14.92591       740.98135    
   3873000   295.3882       0.0090902144   4.4492581      732.86626     -16.049481      716.81678    
   3874000   293.66046      0.0090902144   4.2911242      728.57969     -15.276232      713.30346    
   3875000   297.54564      0.0090902144   5.0412121      738.21894     -16.353298      721.86564    
   3876000   307.29657      0.0090902144   6.9317966      762.41127     -16.333931      746.07734    
   3877000   296.26362      0.0090902144   5.0778471      735.03822     -16.264377      718.77384    
   3878000   290.88687      0.0090902144   3.9763173      721.69835     -17.224969      704.47339    
   3879000   314.26706      0.0090902144   3.2856636      779.70523     -14.733285      764.97194    
   3880000   305.0239       0.0090902144   5.552176       756.77272     -19.29915       737.47357    
   3881000   286.6799       0.0090902144   4.6883612      711.26073     -14.807934      696.4528     
   3882000   295.48444      0.0090902144   5.6952441      733.10505     -14.513462      718.59159    
   3883000   308.20312      0.0090902144   7.0510163      764.66043     -17.239962      747.42047    
   3884000   305.79584      0.0090902144   3.685434       758.68791     -11.708506      746.9794     
   3885000   284.35371      0.0090902144   4.1569624      705.48938     -14.149715      691.33967    
   3886000   288.98321      0.0090902144   4.7210336      716.97531     -14.464407      702.5109     
   3887000   314.92937      0.0090902144   7.6007691      781.34844     -18.011201      763.33724    
   3888000   312.0922       0.0090902144   5.529514       774.30936     -16.78048       757.52888    
   3889000   298.00134      0.0090902144   4.8686922      739.34953     -15.777386      723.57215    
   3890000   282.1383       0.0090902144   4.3856819      699.99291     -14.916535      685.07637    
   3891000   312.04102      0.0090902144   5.7515334      774.18237     -15.949408      758.23296    
   3892000   317.48101      0.0090902144   5.2572583      787.67913     -12.261148      775.41798    
   3893000   293.66554      0.0090902144   4.7606329      728.5923      -15.279797      713.3125     
   3894000   292.40263      0.0090902144   4.3715068      725.45899     -13.58993       711.86906    
   3895000   304.21908      0.0090902144   5.7788292      754.77593     -9.9945273      744.7814     
   3896000   312.2469       0.0090902144   5.2546658      774.69317     -13.349153      761.34401    
   3897000   304.33494      0.0090902144   7.5537619      755.06336     -14.391083      740.67228    
   3898000   279.88741      0.0090902144   4.0590699      694.40838     -12.962914      681.44547    
   3899000   290.10003      0.0090902144   4.5171957      719.74618     -11.108582      708.63759    
   3900000   308.06227      0.0090902144   5.1580703      764.31099     -14.480333      749.83066    
   3901000   296.19078      0.0090902144   7.0117297      734.85749     -13.369708      721.48778    
   3902000   294.37743      0.0090902144   3.8558678      730.35853     -14.254572      716.10396    
   3903000   304.84142      0.0090902144   2.4107048      756.31996     -14.737549      741.58241    
   3904000   313.61283      0.0090902144   6.1402637      778.08208     -14.630651      763.45143    
   3905000   294.64414      0.0090902144   8.7798977      731.02023     -14.027788      716.99245    
   3906000   287.06323      0.0090902144   5.130665       712.21178     -14.775995      697.43578    
   3907000   290.32961      0.0090902144   5.1833868      720.31575     -14.520412      705.79534    
   3908000   307.61771      0.0090902144   3.7862177      763.20801     -14.041669      749.16634    
   3909000   291.71514      0.0090902144   1.2634303      723.75331     -12.141319      711.61199    
   3910000   296.75601      0.0090902144   4.9213711      736.25985     -11.247625      725.01223    
   3911000   301.72711      0.0090902144   5.37885        748.59329     -12.583038      736.01025    
   3912000   303.89685      0.0090902144   5.7030536      753.97646     -14.379905      739.59656    
   3913000   293.57324      0.0090902144   2.5714011      728.3633      -13.893803      714.46949    
   3914000   312.27577      0.0090902144   3.0456948      774.76479     -15.754298      759.01049    
   3915000   295.79263      0.0090902144   7.2465065      733.86967     -14.304684      719.56498    
   3916000   298.4488       0.0090902144   1.1725505      740.45969     -15.476229      724.98346    
   3917000   311.61638      0.0090902144   6.5079424      773.12883     -14.881962      758.24687    
   3918000   280.97605      0.0090902144   8.0474222      697.10932     -16.981791      680.12753    
   3919000   299.26154      0.0090902144   3.9113962      742.47613     -14.935945      727.54018    
   3920000   318.71596      0.0090902144   4.2332849      790.74308     -9.7014981      781.04158    
   3921000   297.6616       0.0090902144   5.5145858      738.50664     -11.612736      726.8939     
   3922000   283.22227      0.0090902144   4.7329168      702.68226     -11.596194      691.08607    
   3923000   297.5692       0.0090902144   5.1313096      738.27739     -10.013428      728.26396    
   3924000   305.29085      0.0090902144   5.0268199      757.43501     -14.54051       742.8945     
   3925000   308.30204      0.0090902144   5.117473       764.90586     -14.058179      750.84768    
   3926000   291.6018       0.0090902144   5.1128892      723.47211     -12.724197      710.74792    
   3927000   300.79805      0.0090902144   6.3579347      746.28825     -11.933013      734.35524    
   3928000   316.13954      0.0090902144   5.5399572      784.35091     -9.3150513      775.03586    
   3929000   293.90756      0.0090902144   3.2863239      729.19276     -11.298919      717.89385    
   3930000   293.90133      0.0090902144   6.7842485      729.17729     -9.7793956      719.3979     
   3931000   316.67041      0.0090902144   3.4935518      785.66801     -10.705022      774.96299    
   3932000   294.05696      0.0090902144   3.6603886      729.56342     -11.310365      718.25306    
   3933000   297.49858      0.0090902144   8.0225222      738.10217     -13.222194      724.87998    
   3934000   311.33332      0.0090902144   5.6351597      772.42656     -14.343088      758.08347    
   3935000   318.6787       0.0090902144   6.1420944      790.65064     -14.463751      776.18689    
   3936000   285.58689      0.0090902144   4.7072756      708.54895     -14.552175      693.99678    
   3937000   306.1186       0.0090902144   8.7429022      759.48868     -11.747947      747.74073    
   3938000   304.89803      0.0090902144   4.2298486      756.46041     -10.487247      745.97316    
   3939000   296.38816      0.0090902144   3.9152367      735.3472      -13.299386      722.04781    
   3940000   281.04733      0.0090902144   4.9646984      697.28617     -12.504031      684.78214    
   3941000   301.55659      0.0090902144   6.6699363      748.17021     -12.470777      735.69943    
   3942000   308.32667      0.0090902144   7.094458       764.96697     -13.371782      751.59519    
   3943000   294.77078      0.0090902144   3.2503983      731.33444     -12.296708      719.03773    
   3944000   290.19917      0.0090902144   4.4801372      719.99215     -14.730666      705.26148    
   3945000   301.62711      0.0090902144   5.2904496      748.34516     -11.264573      737.08059    
   3946000   309.0932       0.0090902144   4.767445       766.86875     -15.302575      751.56617    
   3947000   299.01094      0.0090902144   4.6552187      741.85439     -11.705846      730.14855    
   3948000   289.39745      0.0090902144   4.4615146      718.00304     -13.655649      704.34739    
   3949000   305.31637      0.0090902144   6.3212887      757.49832     -13.452794      744.04553    
   3950000   307.49861      0.0090902144   5.0102764      762.91252     -12.322301      750.59022    
   3951000   295.5485       0.0090902144   3.4606452      733.26397     -11.845401      721.41857    
   3952000   299.49545      0.0090902144   4.1318755      743.05647     -14.124773      728.9317     
   3953000   287.94257      0.0090902144   5.9589096      714.39345     -12.312039      702.08141    
   3954000   310.74557      0.0090902144   5.303599       770.96832     -12.524154      758.44417    
   3955000   299.98111      0.0090902144   4.9984959      744.2614      -12.940556      731.32085    
   3956000   288.22198      0.0090902144   4.571671       715.08667     -14.153922      700.93275    
   3957000   299.04995      0.0090902144   4.8287227      741.95117     -14.963434      726.98774    
   3958000   308.36373      0.0090902144   8.0365754      765.05891     -16.074883      748.98403    
   3959000   294.49569      0.0090902144   4.9976351      730.65193     -17.420911      713.23102    
   3960000   301.19887      0.0090902144   2.3414557      747.2827      -15.472594      731.81011    
   3961000   301.93978      0.0090902144   5.4306697      749.12092     -13.445998      735.67492    
   3962000   301.74259      0.0090902144   5.0134546      748.63169     -13.267045      735.36464    
   3963000   300.02185      0.0090902144   2.5962603      744.36249     -13.324894      731.03759    
   3964000   301.66475      0.0090902144   6.3207763      748.43856     -13.518161      734.9204     
   3965000   300.65196      0.0090902144   4.9150084      745.92581     -16.118579      729.80723    
   3966000   289.54824      0.0090902144  -1.3655388      718.37717     -13.540815      704.83636    
   3967000   306.54616      0.0090902144   1.7507468      760.54948     -13.338356      747.21113    
   3968000   307.36935      0.0090902144   7.3184169      762.59182     -14.249275      748.34255    
   3969000   305.69579      0.0090902144   5.4620653      758.43969     -11.700715      746.73897    
   3970000   301.9763       0.0090902144   3.1447377      749.21153     -10.902139      738.30939    
   3971000   292.6976       0.0090902144   6.7278138      726.19082     -12.480013      713.71081    
   3972000   290.95012      0.0090902144   3.4255651      721.85527     -12.889804      708.96546    
   3973000   297.79371      0.0090902144   1.3034242      738.83439     -12.047197      726.7872     
   3974000   302.47532      0.0090902144   0.69985078     750.44961     -15.818468      734.63115    
   3975000   310.28332      0.0090902144   3.7915184      769.82147     -11.347511      758.47396    
   3976000   295.54248      0.0090902144   7.8810053      733.24905     -12.284732      720.96431    
   3977000   301.05873      0.0090902144   5.3650073      746.93502     -12.558364      734.37665    
   3978000   300.90865      0.0090902144   2.6089729      746.56265     -10.259814      736.30284    
   3979000   304.93305      0.0090902144   2.8227373      756.5473      -12.250865      744.29643    
   3980000   297.65544      0.0090902144   7.6514993      738.49135     -8.8711296      729.62022    
   3981000   290.03063      0.0090902144   9.1692226      719.57398     -12.061761      707.51221    
   3982000   303.18407      0.0090902144   5.450209       752.20805     -12.688445      739.5196     
   3983000   302.92053      0.0090902144  -3.2564928      751.55419     -11.178478      740.37571    
   3984000   304.64176      0.0090902144   4.5368529      755.8246      -10.610487      745.21411    
   3985000   292.69303      0.0090902144   5.8149971      726.17946     -10.923772      715.25569    
   3986000   299.56291      0.0090902144   4.235878       743.22383     -10.869494      732.35433    
   3987000   305.16658      0.0090902144   5.1766025      757.1267      -10.765217      746.36148    
   3988000   303.87491      0.0090902144   5.4498298      753.92203     -8.2716977      745.65033    
   3989000   287.67792      0.0090902144   5.1125547      713.73685     -8.9381977      704.79865    
   3990000   289.06686      0.0090902144   4.4739164      717.18285     -10.299812      706.88304    
   3991000   315.05233      0.0090902144   4.7419248      781.65351     -13.858587      767.79493    
   3992000   299.16767      0.0090902144   7.2491758      742.24323     -14.679438      727.56379    
   3993000   287.93038      0.0090902144   5.1233924      714.3632      -13.845326      700.51787    
   3994000   303.40029      0.0090902144   4.8533672      752.74447     -11.945061      740.79941    
   3995000   301.18397      0.0090902144   6.0452852      747.24574     -11.022251      736.22349    
   3996000   294.55091      0.0090902144   4.3841689      730.78892     -7.275073       723.51384    
   3997000   289.12027      0.0090902144   1.7084897      717.31536     -9.0708146      708.24455    
   3998000   301.37705      0.0090902144   5.2030466      747.72478     -8.6322132      739.09256    
   3999000   309.32981      0.0090902144   7.1905758      767.45578     -15.205638      752.25014    
   4000000   295.8655       0.0090902144   4.5508854      734.05045     -11.031747      723.01871    
Loop time of 7681.59 on 1 procs for 4000000 steps with 1500 atoms

Performance: 11.248 ns/day, 2.134 hours/ns, 520.726 timesteps/s, 781.089 katom-step/s
100.0% CPU use with 1 MPI tasks x 1 OpenMP threads

MPI task timing breakdown:
Section |  min time  |  avg time  |  max time  |%varavg| %total
---------------------------------------------------------------
Pair    | 790.21     | 790.21     | 790.21     |   0.0 | 10.29
Bond    | 88.291     | 88.291     | 88.291     |   0.0 |  1.15
Kspace  | 6301.3     | 6301.3     | 6301.3     |   0.0 | 82.03
Neigh   | 0.031513   | 0.031513   | 0.031513   |   0.0 |  0.00
Comm    | 15.93      | 15.93      | 15.93      |   0.0 |  0.21
Output  | 0.082919   | 0.082919   | 0.082919   |   0.0 |  0.00
Modify  | 474.39     | 474.39     | 474.39     |   0.0 |  6.18
Other   |            | 11.31      |            |       |  0.15

Nlocal:           1500 ave        1500 max        1500 min
Histogram: 1 0 0 0 0 0 0 0 0 0
Nghost:            952 ave         952 max         952 min
Histogram: 1 0 0 0 0 0 0 0 0 0
Neighs:              0 ave           0 max           0 min
Histogram: 1 0 0 0 0 0 0 0 0 0

Total # of neighbors = 0
Ave neighs/atom = 0
Ave special neighs/atom = 2
Neighbor list builds = 19533
Dangerous builds = 0
write_data	last_conf.data pair ij
System init for write_data ...
PPPM initialization ...
  using 12-bit tables for long-range coulomb (src/kspace.cpp:342)
  G vector (1/distance) = 0.15623461
  grid = 30 30 30
  stencil order = 5
  estimated absolute RMS force accuracy = 0.038174764
  estimated relative force accuracy = 0.00011496217
  using double precision FFTW3
  3d grid and FFT values/proc = 42875 27000
Generated 1 of 1 mixed pair_coeff terms from arithmetic mixing rule
Total wall time: 2:08:01
